 Entering Gaussian System, Link 0=g09
 Input=/Volumes/x358chen/494A_Xiaotian/baker_testsuite/ongoing_reactions/24/r.com
 Output=/Volumes/x358chen/494A_Xiaotian/baker_testsuite/ongoing_reactions/24/r.log
 Initial command:
 /Applications/g09/l1.exe /Volumes/x358chen/494A_Xiaotian/baker_testsuite/ongoing_reactions/24/Gau-1471.inp -scrdir=/Volumes/x358chen/494A_Xiaotian/baker_testsuite/ongoing_reactions/24/
 Entering Link 1 = /Applications/g09/l1.exe PID=      1472.
  
 Copyright (c) 1988,1990,1992,1993,1995,1998,2003,2009, Gaussian, Inc.
                  All Rights Reserved.
  
 This is part of the Gaussian(R) 09 program.  It is based on
 the Gaussian(R) 03 system (copyright 2003, Gaussian, Inc.),
 the Gaussian(R) 98 system (copyright 1998, Gaussian, Inc.),
 the Gaussian(R) 94 system (copyright 1995, Gaussian, Inc.),
 the Gaussian 92(TM) system (copyright 1992, Gaussian, Inc.),
 the Gaussian 90(TM) system (copyright 1990, Gaussian, Inc.),
 the Gaussian 88(TM) system (copyright 1988, Gaussian, Inc.),
 the Gaussian 86(TM) system (copyright 1986, Carnegie Mellon
 University), and the Gaussian 82(TM) system (copyright 1983,
 Carnegie Mellon University). Gaussian is a federally registered
 trademark of Gaussian, Inc.
  
 This software contains proprietary and confidential information,
 including trade secrets, belonging to Gaussian, Inc.
  
 This software is provided under written license and may be
 used, copied, transmitted, or stored only in accord with that
 written license.
  
 The following legend is applicable only to US Government
 contracts under FAR:
  
                    RESTRICTED RIGHTS LEGEND
  
 Use, reproduction and disclosure by the US Government is
 subject to restrictions as set forth in subparagraphs (a)
 and (c) of the Commercial Computer Software - Restricted
 Rights clause in FAR 52.227-19.
  
 Gaussian, Inc.
 340 Quinnipiac St., Bldg. 40, Wallingford CT 06492
  
  
 ---------------------------------------------------------------
 Warning -- This program may not be used in any manner that
 competes with the business of Gaussian, Inc. or will provide
 assistance to any competitor of Gaussian, Inc.  The licensee
 of this program is prohibited from giving any competitor of
 Gaussian, Inc. access to this program.  By using this program,
 the user acknowledges that Gaussian, Inc. is engaged in the
 business of creating and licensing software in the field of
 computational chemistry and represents and warrants to the
 licensee that it is not a competitor of Gaussian, Inc. and that
 it will not use this program in any manner prohibited above.
 ---------------------------------------------------------------
  

 Cite this work as:
 Gaussian 09, Revision A.02,
 M. J. Frisch, G. W. Trucks, H. B. Schlegel, G. E. Scuseria, 
 M. A. Robb, J. R. Cheeseman, G. Scalmani, V. Barone, B. Mennucci, 
 G. A. Petersson, H. Nakatsuji, M. Caricato, X. Li, H. P. Hratchian, 
 A. F. Izmaylov, J. Bloino, G. Zheng, J. L. Sonnenberg, M. Hada, 
 M. Ehara, K. Toyota, R. Fukuda, J. Hasegawa, M. Ishida, T. Nakajima, 
 Y. Honda, O. Kitao, H. Nakai, T. Vreven, J. A. Montgomery, Jr., 
 J. E. Peralta, F. Ogliaro, M. Bearpark, J. J. Heyd, E. Brothers, 
 K. N. Kudin, V. N. Staroverov, R. Kobayashi, J. Normand, 
 K. Raghavachari, A. Rendell, J. C. Burant, S. S. Iyengar, J. Tomasi, 
 M. Cossi, N. Rega, J. M. Millam, M. Klene, J. E. Knox, J. B. Cross, 
 V. Bakken, C. Adamo, J. Jaramillo, R. Gomperts, R. E. Stratmann, 
 O. Yazyev, A. J. Austin, R. Cammi, C. Pomelli, J. W. Ochterski, 
 R. L. Martin, K. Morokuma, V. G. Zakrzewski, G. A. Voth, 
 P. Salvador, J. J. Dannenberg, S. Dapprich, A. D. Daniels, 
 O. Farkas, J. B. Foresman, J. V. Ortiz, J. Cioslowski, 
 and D. J. Fox, Gaussian, Inc., Wallingford CT, 2009.
 
 ******************************************
 Gaussian 09:  EM64M-G09RevA.02 11-Jun-2009
                21-Oct-2016 
 ******************************************
 %chk=r.chk
 ---------------------------------------
 # opt=calcfc freq hf/3-21g symmetry=com
 ---------------------------------------
 1/10=4,18=20,19=15,38=1/1,3;
 2/9=110,12=2,17=6,18=5,21=2,40=1/2;
 3/5=5,11=9,16=1,25=1,30=1,71=2/1,2,3;
 4//1;
 5/5=2,38=5/2;
 8/6=4,10=90,11=11/1;
 11/6=1,8=1,9=11,15=111,16=1/1,2,10;
 10/6=1,7=6,13=1/2;
 6/7=2,8=2,9=2,10=2,28=1/1;
 7/10=1,18=20,25=1/1,2,3,16;
 1/10=4,18=20,19=15/3(2);
 2/9=110,21=2/2;
 99//99;
 2/9=110,21=2/2;
 3/5=5,11=9,16=1,25=1,30=1,71=1/1,2,3;
 4/5=5,16=3/1;
 5/5=2,38=5/2;
 7//1,2,3,16;
 1/18=20,19=15/3(-5);
 2/9=110,21=2/2;
 6/7=2,8=2,9=2,10=2,19=2,28=1/1;
 99/9=1/99;
 -----------
 24_reactant
 -----------
 Symbolic Z-matrix:
 Charge =  0 Multiplicity = 1
 H                    -1.05463  -1.17398  -0.03264 
 N                    -0.81404  -0.2041   -0.07065 
 C                     0.35743   0.18726   0.31393 
 H                     0.61486   1.22504   0.27325 
 H                     1.06897  -0.5268    0.67272 
 

 GradGradGradGradGradGradGradGradGradGradGradGradGradGradGradGradGradGrad
 Berny optimization.
 Initialization pass.
                           ----------------------------
                           !    Initial Parameters    !
                           ! (Angstroms and Degrees)  !
 --------------------------                            --------------------------
 ! Name  Definition              Value          Derivative Info.                !
 --------------------------------------------------------------------------------
 ! R1    R(1,2)                  1.0            calculate D2E/DX2 analytically  !
 ! R2    R(2,3)                  1.2936         calculate D2E/DX2 analytically  !
 ! R3    R(3,4)                  1.07           calculate D2E/DX2 analytically  !
 ! R4    R(3,5)                  1.07           calculate D2E/DX2 analytically  !
 ! A1    A(1,2,3)              120.0            calculate D2E/DX2 analytically  !
 ! A2    A(2,3,4)              120.0            calculate D2E/DX2 analytically  !
 ! A3    A(2,3,5)              120.0            calculate D2E/DX2 analytically  !
 ! A4    A(4,3,5)              120.0            calculate D2E/DX2 analytically  !
 ! D1    D(1,2,3,4)            179.9999         calculate D2E/DX2 analytically  !
 ! D2    D(1,2,3,5)              0.0001         calculate D2E/DX2 analytically  !
 --------------------------------------------------------------------------------
 Trust Radius=3.00D-01 FncErr=1.00D-07 GrdErr=1.00D-07
 Number of steps in this run=  20 maximum allowed number of steps= 100.
 GradGradGradGradGradGradGradGradGradGradGradGradGradGradGradGradGradGrad

                          Input orientation:                          
 ---------------------------------------------------------------------
 Center     Atomic      Atomic             Coordinates (Angstroms)
 Number     Number       Type             X           Y           Z
 ---------------------------------------------------------------------
      1          1           0       -1.054634   -1.173977   -0.032637
      2          7           0       -0.814040   -0.204096   -0.070654
      3          6           0        0.357426    0.187264    0.313931
      4          1           0        0.614862    1.225037    0.273252
      5          1           0        1.068968   -0.526795    0.672716
 ---------------------------------------------------------------------
                    Distance matrix (angstroms):
                    1          2          3          4          5
     1  H    0.000000
     2  N    1.000000   0.000000
     3  C    1.991733   1.293600   0.000000
     4  H    2.938716   2.049989   1.070000   0.000000
     5  H    2.329389   2.049989   1.070000   1.853294   0.000000
 Stoichiometry    CH3N
 Framework group  C1[X(CH3N)]
 Deg. of freedom     9
 Full point group                 C1      NOp   1
 Largest Abelian subgroup         C1      NOp   1
 Largest concise Abelian subgroup C1      NOp   1
                         Standard orientation:                         
 ---------------------------------------------------------------------
 Center     Atomic      Atomic             Coordinates (Angstroms)
 Number     Number       Type             X           Y           Z
 ---------------------------------------------------------------------
      1          1           0       -1.206724    0.743185    0.000000
      2          7           0       -0.640041   -0.080751    0.000000
      3          6           0        0.649537    0.021176    0.000000
      4          1           0        1.255888   -0.860436    0.000001
      5          1           0        1.109860    0.987097    0.000000
 ---------------------------------------------------------------------
 Rotational constants (GHZ):    212.2135158     33.4737375     28.9130975
 Standard basis: 3-21G (6D, 7F)
 There are    24 symmetry adapted basis functions of A   symmetry.
 Integral buffers will be    131072 words long.
 Raffenetti 1 integral format.
 Two-electron integral symmetry is turned on.
    24 basis functions,    39 primitive gaussians,    24 cartesian basis functions
     8 alpha electrons        8 beta electrons
       nuclear repulsion energy        32.7208289041 Hartrees.
 NAtoms=    5 NActive=    5 NUniq=    5 SFac= 7.50D-01 NAtFMM=   80 NAOKFM=F Big=F
 One-electron integrals computed using PRISM.
 NBasis=    24 RedAO= T  NBF=    24
 NBsUse=    24 1.00D-06 NBFU=    24
 Harris functional with IExCor=  205 diagonalized for initial guess.
 ExpMin= 1.83D-01 ExpMax= 2.43D+02 ExpMxC= 2.43D+02 IAcc=1 IRadAn=         1 AccDes= 0.00D+00
 HarFok:  IExCor=  205 AccDes= 0.00D+00 IRadAn=         1 IDoV= 1
 ScaDFX=  1.000000  1.000000  1.000000  1.000000
 FoFCou: FMM=F IPFlag=           0 FMFlag=      100000 FMFlg1=           0
         NFxFlg=           0 DoJE=T BraDBF=F KetDBF=T FulRan=T
         Omega=  0.000000  0.000000  1.000000  0.000000  0.000000 ICntrl=     500 IOpCl=  0
         NMat0=    1 NMatS0=    1 NMatT0=    0 NMatD0=    1 NMtDS0=    0 NMtDT0=    0
         I1Cent=           4 NGrid=           0.
 Petite list used in FoFCou.
 Initial guess orbital symmetries:
       Occupied  (A) (A) (A) (A) (A) (A) (A) (A)
       Virtual   (A) (A) (A) (A) (A) (A) (A) (A) (A) (A) (A) (A)
                 (A) (A) (A) (A)
 The electronic state of the initial guess is 1-A.
 Requested convergence on RMS density matrix=1.00D-08 within 128 cycles.
 Requested convergence on MAX density matrix=1.00D-06.
 Requested convergence on             energy=1.00D-06.
 No special actions if energy rises.
 Keep R1 ints in memory in canonical form, NReq=865372.
 SCF Done:  E(RHF) =  -93.4903939142     A.U. after   11 cycles
             Convg  =    0.5336D-08             -V/T =  2.0032
 Range of M.O.s used for correlation:     1    24
 NBasis=    24 NAE=     8 NBE=     8 NFC=     0 NFV=     0
 NROrb=     24 NOA=     8 NOB=     8 NVA=    16 NVB=    16
 Symmetrizing basis deriv contribution to polar:
 IMax=3 JMax=2 DiffMx= 0.00D+00
 G2DrvN: will do     6 centers at a time, making    1 passes doing MaxLOS=1.
 Calling FoFCou, ICntrl=  3107 FMM=F I1Cent=   0 AccDes= 0.00D+00.
 FoFDir/FoFCou used for L=0 through L=1.
 End of G2Drv Frequency-dependent properties file   721 does not exist.
 End of G2Drv Frequency-dependent properties file   722 does not exist.
          IDoAtm=11111
          Differentiating once with respect to nuclear coordinates.
          Keep R1 ints in memory in canonical form, NReq=845682.
          There are    18 degrees of freedom in the 1st order CPHF.  IDoFFX=5.
     12 vectors produced by pass  0 Test12= 7.11D-12 5.56D-07 XBig12= 6.70D-02 1.08D-01.
 AX will form    12 AO Fock derivatives at one time.
     12 vectors produced by pass  1 Test12= 7.11D-12 5.56D-07 XBig12= 2.87D-03 2.10D-02.
     12 vectors produced by pass  2 Test12= 7.11D-12 5.56D-07 XBig12= 1.55D-05 1.45D-03.
     12 vectors produced by pass  3 Test12= 7.11D-12 5.56D-07 XBig12= 7.18D-08 8.50D-05.
     10 vectors produced by pass  4 Test12= 7.11D-12 5.56D-07 XBig12= 4.03D-10 7.29D-06.
 Inverted reduced A of dimension    58 with in-core refinement.
 End of Minotr Frequency-dependent properties file   721 does not exist.
 End of Minotr Frequency-dependent properties file   722 does not exist.

 **********************************************************************

            Population analysis using the SCF density.

 **********************************************************************

 Orbital symmetries:
       Occupied  (A) (A) (A) (A) (A) (A) (A) (A)
       Virtual   (A) (A) (A) (A) (A) (A) (A) (A) (A) (A) (A) (A)
                 (A) (A) (A) (A)
 The electronic state is 1-A.
 Alpha  occ. eigenvalues --  -15.48283 -11.22195  -1.19949  -0.84991  -0.67962
 Alpha  occ. eigenvalues --   -0.61570  -0.43345  -0.40224
 Alpha virt. eigenvalues --    0.16829   0.28159   0.31076   0.38901   0.52242
 Alpha virt. eigenvalues --    0.98112   0.99538   1.01553   1.14878   1.28649
 Alpha virt. eigenvalues --    1.34643   1.45766   1.56241   1.64997   1.77811
 Alpha virt. eigenvalues --    2.68121
          Condensed to atoms (all electrons):
              1          2          3          4          5
     1  H    0.434544   0.319477  -0.053989   0.004230  -0.007236
     2  N    0.319477   6.871378   0.504685  -0.045471  -0.060438
     3  C   -0.053989   0.504685   4.933633   0.374982   0.366288
     4  H    0.004230  -0.045471   0.374982   0.482114  -0.041265
     5  H   -0.007236  -0.060438   0.366288  -0.041265   0.555803
 Mulliken atomic charges:
              1
     1  H    0.302974
     2  N   -0.589631
     3  C   -0.125599
     4  H    0.225410
     5  H    0.186846
 Sum of Mulliken atomic charges =   0.00000
 Mulliken charges with hydrogens summed into heavy atoms:
              1
     2  N   -0.286657
     3  C    0.286657
 Sum of Mulliken charges with hydrogens summed into heavy atoms =   0.00000
 APT atomic charges:
              1
     1  H    0.513119
     2  N   -0.771107
     3  C   -0.528490
     4  H    0.428426
     5  H    0.358052
 Sum of APT charges=   0.00000
 APT Atomic charges with hydrogens summed into heavy atoms:
              1
     1  H    0.000000
     2  N   -0.257988
     3  C    0.257988
     4  H    0.000000
     5  H    0.000000
 Sum of APT charges=   0.00000
 Electronic spatial extent (au):  <R**2>=             70.4054
 Charge=              0.0000 electrons
 Dipole moment (field-independent basis, Debye):
    X=              1.2159    Y=              1.7817    Z=              0.0000  Tot=              2.1571
 Quadrupole moment (field-independent basis, Debye-Ang):
   XX=            -11.6060   YY=            -12.0057   ZZ=            -13.5458
   XY=             -2.4066   XZ=              0.0000   YZ=              0.0000
 Traceless Quadrupole moment (field-independent basis, Debye-Ang):
   XX=              0.7798   YY=              0.3802   ZZ=             -1.1600
   XY=             -2.4066   XZ=              0.0000   YZ=              0.0000
 Octapole moment (field-independent basis, Debye-Ang**2):
  XXX=             -2.2991  YYY=              0.6163  ZZZ=              0.0000  XYY=             -0.1742
  XXY=              1.9372  XXZ=              0.0000  XZZ=             -1.1619  YZZ=             -0.0445
  YYZ=              0.0000  XYZ=              0.0000
 Hexadecapole moment (field-independent basis, Debye-Ang**3):
 XXXX=            -51.9107 YYYY=            -19.2325 ZZZZ=            -12.1291 XXXY=             -3.5998
 XXXZ=              0.0000 YYYX=             -1.4637 YYYZ=              0.0000 ZZZX=              0.0000
 ZZZY=              0.0000 XXYY=            -10.5115 XXZZ=            -11.4445 YYZZ=             -5.6154
 XXYZ=              0.0000 YYXZ=              0.0000 ZZXY=             -0.1400
 N-N= 3.272082890412D+01 E-N=-2.838441194646D+02  KE= 9.319204356655D+01
  Exact polarizability:   0.000   0.000   0.000   0.000   0.000   0.000
 Approx polarizability:  22.082  -0.358  10.774   0.000   0.000   4.467
 Calling FoFJK, ICntrl=    100147 FMM=F ISym2X=0 I1Cent= 0 IOpClX= 0 NMat=1 NMatS=1 NMatT=0.
 ***** Axes restored to original set *****
 -------------------------------------------------------------------
 Center     Atomic                   Forces (Hartrees/Bohr)
 Number     Number              X              Y              Z
 -------------------------------------------------------------------
      1        1           0.008810203   -0.011806290    0.004832478
      2        7           0.036957551    0.046596704    0.007627755
      3        6          -0.058680337   -0.038880171   -0.016728899
      4        1           0.000313464    0.000269795    0.000081259
      5        1           0.012599119    0.003819963    0.004187407
 -------------------------------------------------------------------
 Cartesian Forces:  Max     0.058680337 RMS     0.024848346

 GradGradGradGradGradGradGradGradGradGradGradGradGradGradGradGradGradGrad
 Berny optimization.
 Internal  Forces:  Max     0.055676389 RMS     0.020365260
 Search for a local minimum.
 Step number   1 out of a maximum of   20
 All quantities printed in internal units (Hartrees-Bohrs-Radians)
 Mixed Optimization -- RFO/linear search
 Second derivative matrix not updated -- analytic derivatives used.
 The second derivative matrix:
                          R1        R2        R3        R4        A1
           R1           0.50111
           R2          -0.00417   0.67775
           R3          -0.00130   0.01510   0.40163
           R4           0.00235   0.01843   0.00188   0.39710
           A1           0.03402   0.06831  -0.00030  -0.00742   0.18057
           A2           0.00689   0.02194   0.00503  -0.01491   0.01012
           A3          -0.00606   0.01731  -0.01244   0.00730  -0.00938
           A4          -0.00083  -0.03925   0.00741   0.00761  -0.00074
           D1           0.00000   0.00000   0.00000   0.00000   0.00000
           D2           0.00000   0.00000   0.00000   0.00000   0.00000
                          A2        A3        A4        D1        D2
           A2           0.11638
           A3          -0.07515   0.12368
           A4          -0.04123  -0.04853   0.08977
           D1           0.00000   0.00000   0.00000   0.10040
           D2           0.00000   0.00000   0.00000  -0.03830   0.08386
     Eigenvalues ---    0.05295   0.12837   0.13131   0.16318   0.19833
     Eigenvalues ---    0.39823   0.40217   0.50501   0.692711000.00000
 RFO step:  Lambda=-8.99996202D-03 EMin= 5.29538821D-02
 Linear search not attempted -- first point.
 Iteration  1 RMS(Cart)=  0.04527906 RMS(Int)=  0.00142498
 Iteration  2 RMS(Cart)=  0.00151960 RMS(Int)=  0.00000040
 Iteration  3 RMS(Cart)=  0.00000050 RMS(Int)=  0.00000000
 Variable       Old X    -DE/DX   Delta X   Delta X   Delta X     New X
                                 (Linear)    (Quad)   (Total)
    R1        1.88973   0.00951   0.00000   0.02521   0.02521   1.91493
    R2        2.44455  -0.05568   0.00000  -0.07865  -0.07865   2.36590
    R3        2.02201   0.00033   0.00000   0.00783   0.00783   2.02984
    R4        2.02201   0.00723   0.00000   0.01895   0.01895   2.04096
    A1        2.09440  -0.02313   0.00000  -0.09278  -0.09278   2.00161
    A2        2.09440  -0.00759   0.00000  -0.01116  -0.01116   2.08324
    A3        2.09440   0.01569   0.00000   0.08829   0.08829   2.18268
    A4        2.09440  -0.00811   0.00000  -0.07713  -0.07713   2.01726
    D1        3.14159   0.00000   0.00000   0.00000   0.00000   3.14159
    D2        0.00000   0.00000   0.00000   0.00000   0.00000   0.00000
         Item               Value     Threshold  Converged?
 Maximum Force            0.055676     0.000450     NO 
 RMS     Force            0.020365     0.000300     NO 
 Maximum Displacement     0.072856     0.001800     NO 
 RMS     Displacement     0.045810     0.001200     NO 
 Predicted change in Energy=-4.633717D-03
 GradGradGradGradGradGradGradGradGradGradGradGradGradGradGradGradGradGrad

                          Input orientation:                          
 ---------------------------------------------------------------------
 Center     Atomic      Atomic             Coordinates (Angstroms)
 Number     Number       Type             X           Y           Z
 ---------------------------------------------------------------------
      1          1           0       -1.016080   -1.162157   -0.019840
      2          7           0       -0.821222   -0.169426   -0.077888
      3          6           0        0.323880    0.161881    0.304782
      4          1           0        0.610160    1.196752    0.275222
      5          1           0        1.075846   -0.519617    0.674333
 ---------------------------------------------------------------------
                    Distance matrix (angstroms):
                    1          2          3          4          5
     1  H    0.000000
     2  N    1.013338   0.000000
     3  C    1.911530   1.251981   0.000000
     4  H    2.880307   2.009970   1.074145   0.000000
     5  H    2.295841   2.070588   1.080028   1.822656   0.000000
 Stoichiometry    CH3N
 Framework group  C1[X(CH3N)]
 Deg. of freedom     9
 Full point group                 C1      NOp   1
 Largest Abelian subgroup         C1      NOp   1
 Largest concise Abelian subgroup C1      NOp   1
                         Standard orientation:                         
 ---------------------------------------------------------------------
 Center     Atomic      Atomic             Coordinates (Angstroms)
 Number     Number       Type             X           Y           Z
 ---------------------------------------------------------------------
      1          1           0       -1.121275    0.802722    0.000000
      2          7           0       -0.625173   -0.080871    0.000000
      3          6           0        0.622726    0.020156    0.000000
      4          1           0        1.223211   -0.870464    0.000000
      5          1           0        1.169746    0.951407    0.000000
 ---------------------------------------------------------------------
 Rotational constants (GHZ):    208.6827008     35.3894753     30.2581450
 Standard basis: 3-21G (6D, 7F)
 There are    24 symmetry adapted basis functions of A   symmetry.
 Integral buffers will be    131072 words long.
 Raffenetti 1 integral format.
 Two-electron integral symmetry is turned on.
    24 basis functions,    39 primitive gaussians,    24 cartesian basis functions
     8 alpha electrons        8 beta electrons
       nuclear repulsion energy        33.3008617533 Hartrees.
 NAtoms=    5 NActive=    5 NUniq=    5 SFac= 7.50D-01 NAtFMM=   80 NAOKFM=F Big=F
 One-electron integrals computed using PRISM.
 NBasis=    24 RedAO= T  NBF=    24
 NBsUse=    24 1.00D-06 NBFU=    24
 Initial guess read from the read-write file.
 B after Tr=     0.000000    0.000000    0.000000
         Rot=    1.000000    0.000000    0.000000    0.000000 Ang=   0.00 deg.
 Initial guess orbital symmetries:
       Occupied  (A) (A) (A) (A) (A) (A) (A) (A)
       Virtual   (A) (A) (A) (A) (A) (A) (A) (A) (A) (A) (A) (A)
                 (A) (A) (A) (A)
 Harris functional with IExCor=  205 diagonalized for initial guess.
 ExpMin= 1.83D-01 ExpMax= 2.43D+02 ExpMxC= 2.43D+02 IAcc=1 IRadAn=         1 AccDes= 0.00D+00
 HarFok:  IExCor=  205 AccDes= 0.00D+00 IRadAn=         1 IDoV= 1
 ScaDFX=  1.000000  1.000000  1.000000  1.000000
 FoFCou: FMM=F IPFlag=           0 FMFlag=      100000 FMFlg1=           0
         NFxFlg=           0 DoJE=T BraDBF=F KetDBF=T FulRan=T
         Omega=  0.000000  0.000000  1.000000  0.000000  0.000000 ICntrl=     500 IOpCl=  0
         NMat0=    1 NMatS0=    1 NMatT0=    0 NMatD0=    1 NMtDS0=    0 NMtDT0=    0
         I1Cent=           4 NGrid=           0.
 Petite list used in FoFCou.
 Requested convergence on RMS density matrix=1.00D-08 within 128 cycles.
 Requested convergence on MAX density matrix=1.00D-06.
 Requested convergence on             energy=1.00D-06.
 No special actions if energy rises.
 Keep R1 ints in memory in canonical form, NReq=865372.
 SCF Done:  E(RHF) =  -93.4947405013     A.U. after   11 cycles
             Convg  =    0.2088D-08             -V/T =  2.0019
 Calling FoFJK, ICntrl=      2127 FMM=F ISym2X=0 I1Cent= 0 IOpClX= 0 NMat=1 NMatS=1 NMatT=0.
 ***** Axes restored to original set *****
 -------------------------------------------------------------------
 Center     Atomic                   Forces (Hartrees/Bohr)
 Number     Number              X              Y              Z
 -------------------------------------------------------------------
      1        1          -0.001029557   -0.001139288   -0.000233378
      2        7          -0.005994066   -0.001204227   -0.002072809
      3        6           0.006005252    0.001722548    0.002008787
      4        1           0.000316282    0.000374969    0.000068413
      5        1           0.000702090    0.000245997    0.000228988
 -------------------------------------------------------------------
 Cartesian Forces:  Max     0.006005252 RMS     0.002422184

 GradGradGradGradGradGradGradGradGradGradGradGradGradGradGradGradGradGrad
 Berny optimization.
 Using GEDIIS/GDIIS optimizer.
 Internal  Forces:  Max     0.007749070 RMS     0.002563036
 Search for a local minimum.
 Step number   2 out of a maximum of   20
 All quantities printed in internal units (Hartrees-Bohrs-Radians)
 Mixed Optimization -- RFO/linear search
 Update second derivatives using D2CorX and points    1    2
 DE= -4.35D-03 DEPred=-4.63D-03 R= 9.38D-01
 SS=  1.41D+00  RLast= 1.72D-01 DXNew= 5.0454D-01 5.1717D-01
 Trust test= 9.38D-01 RLast= 1.72D-01 DXMaxT set to 5.05D-01
 The second derivative matrix:
                          R1        R2        R3        R4        A1
           R1           0.49826
           R2           0.00004   0.75069
           R3          -0.00167   0.01749   0.40162
           R4           0.00068   0.01783   0.00159   0.39623
           A1           0.03656   0.09149   0.00065  -0.00697   0.18747
           A2           0.00849   0.02392   0.00534  -0.01414   0.01017
           A3          -0.00913   0.01239  -0.01306   0.00587  -0.00987
           A4           0.00063  -0.03631   0.00772   0.00827  -0.00030
           D1           0.00000   0.00000   0.00000   0.00000   0.00000
           D2           0.00000   0.00000   0.00000   0.00000   0.00000
                          A2        A3        A4        D1        D2
           A2           0.11572
           A3          -0.07395   0.12152
           A4          -0.04177  -0.04757   0.08935
           D1           0.00000   0.00000   0.00000   0.10040
           D2           0.00000   0.00000   0.00000  -0.03830   0.08386
 Use linear search instead of GDIIS.
     Eigenvalues ---    0.05295   0.12864   0.13131   0.16462   0.19539
     Eigenvalues ---    0.39743   0.40209   0.50275   0.769951000.00000
 RFO step:  Lambda=-5.63629110D-05 EMin= 5.29538821D-02
 Quartic linear search produced a step of -0.05763.
 Iteration  1 RMS(Cart)=  0.00594874 RMS(Int)=  0.00000699
 Iteration  2 RMS(Cart)=  0.00000577 RMS(Int)=  0.00000000
 Iteration  3 RMS(Cart)=  0.00000000 RMS(Int)=  0.00000000
 Variable       Old X    -DE/DX   Delta X   Delta X   Delta X     New X
                                 (Linear)    (Quad)   (Total)
    R1        1.91493   0.00130  -0.00145   0.00405   0.00259   1.91752
    R2        2.36590   0.00775   0.00453   0.00506   0.00959   2.37549
    R3        2.02984   0.00044  -0.00045   0.00140   0.00095   2.03079
    R4        2.04096   0.00041  -0.00109   0.00174   0.00065   2.04161
    A1        2.00161   0.00163   0.00535  -0.00231   0.00304   2.00465
    A2        2.08324  -0.00015   0.00064  -0.00253  -0.00189   2.08135
    A3        2.18268   0.00075  -0.00509   0.00975   0.00466   2.18734
    A4        2.01726  -0.00060   0.00445  -0.00721  -0.00277   2.01450
    D1        3.14159   0.00000   0.00000   0.00000   0.00000  -3.14159
    D2        0.00000   0.00000   0.00000   0.00000   0.00000   0.00000
         Item               Value     Threshold  Converged?
 Maximum Force            0.007749     0.000450     NO 
 RMS     Force            0.002563     0.000300     NO 
 Maximum Displacement     0.011409     0.001800     NO 
 RMS     Displacement     0.005949     0.001200     NO 
 Predicted change in Energy=-4.463497D-05
 GradGradGradGradGradGradGradGradGradGradGradGradGradGradGradGradGradGrad

                          Input orientation:                          
 ---------------------------------------------------------------------
 Center     Atomic      Atomic             Coordinates (Angstroms)
 Number     Number       Type             X           Y           Z
 ---------------------------------------------------------------------
      1          1           0       -1.022117   -1.164077   -0.021835
      2          7           0       -0.823743   -0.170572   -0.078675
      3          6           0        0.326121    0.161530    0.305662
      4          1           0        0.611147    1.197253    0.275524
      5          1           0        1.081175   -0.516702    0.675933
 ---------------------------------------------------------------------
                    Distance matrix (angstroms):
                    1          2          3          4          5
     1  H    0.000000
     2  N    1.014710   0.000000
     3  C    1.918915   1.257057   0.000000
     4  H    2.886495   2.013780   1.074649   0.000000
     5  H    2.308639   2.077968   1.080374   1.821784   0.000000
 Stoichiometry    CH3N
 Framework group  C1[X(CH3N)]
 Deg. of freedom     9
 Full point group                 C1      NOp   1
 Largest Abelian subgroup         C1      NOp   1
 Largest concise Abelian subgroup C1      NOp   1
                         Standard orientation:                         
 ---------------------------------------------------------------------
 Center     Atomic      Atomic             Coordinates (Angstroms)
 Number     Number       Type             X           Y           Z
 ---------------------------------------------------------------------
      1          1           0        1.126777    0.802756    0.000000
      2          7           0        0.627636   -0.080700    0.000000
      3          6           0       -0.625358    0.020286    0.000000
      4          1           0       -1.224118   -0.872102    0.000000
      5          1           0       -1.177220    0.949079    0.000000
 ---------------------------------------------------------------------
 Rotational constants (GHZ):    208.8424586     35.1067139     30.0545083
 Standard basis: 3-21G (6D, 7F)
 There are    24 symmetry adapted basis functions of A   symmetry.
 Integral buffers will be    131072 words long.
 Raffenetti 1 integral format.
 Two-electron integral symmetry is turned on.
    24 basis functions,    39 primitive gaussians,    24 cartesian basis functions
     8 alpha electrons        8 beta electrons
       nuclear repulsion energy        33.2041455525 Hartrees.
 NAtoms=    5 NActive=    5 NUniq=    5 SFac= 7.50D-01 NAtFMM=   80 NAOKFM=F Big=F
 One-electron integrals computed using PRISM.
 NBasis=    24 RedAO= T  NBF=    24
 NBsUse=    24 1.00D-06 NBFU=    24
 Initial guess read from the read-write file.
 B after Tr=     0.000000    0.000000    0.000000
         Rot=    1.000000    0.000000    0.000000    0.000000 Ang=   0.00 deg.
 Initial guess orbital symmetries:
       Occupied  (A) (A) (A) (A) (A) (A) (A) (A)
       Virtual   (A) (A) (A) (A) (A) (A) (A) (A) (A) (A) (A) (A)
                 (A) (A) (A) (A)
 Requested convergence on RMS density matrix=1.00D-08 within 128 cycles.
 Requested convergence on MAX density matrix=1.00D-06.
 Requested convergence on             energy=1.00D-06.
 No special actions if energy rises.
 Keep R1 ints in memory in canonical form, NReq=865372.
 SCF Done:  E(RHF) =  -93.4947799228     A.U. after   13 cycles
             Convg  =    0.2041D-08             -V/T =  2.0022
 Calling FoFJK, ICntrl=      2127 FMM=F ISym2X=0 I1Cent= 0 IOpClX= 0 NMat=1 NMatS=1 NMatT=0.
 ***** Axes restored to original set *****
 -------------------------------------------------------------------
 Center     Atomic                   Forces (Hartrees/Bohr)
 Number     Number              X              Y              Z
 -------------------------------------------------------------------
      1        1          -0.000070909   -0.000019649   -0.000023812
      2        7           0.000943234    0.000163685    0.000329577
      3        6          -0.000698093   -0.000064538   -0.000251367
      4        1          -0.000074841    0.000016186   -0.000029988
      5        1          -0.000099391   -0.000095684   -0.000024410
 -------------------------------------------------------------------
 Cartesian Forces:  Max     0.000943234 RMS     0.000327838

 GradGradGradGradGradGradGradGradGradGradGradGradGradGradGradGradGradGrad
 Berny optimization.
 Using GEDIIS/GDIIS optimizer.
 Internal  Forces:  Max     0.000929477 RMS     0.000304009
 Search for a local minimum.
 Step number   3 out of a maximum of   20
 All quantities printed in internal units (Hartrees-Bohrs-Radians)
 Mixed Optimization -- En-DIIS/RFO-DIIS
 Update second derivatives using D2CorX and points    1    2    3
 DE= -3.94D-05 DEPred=-4.46D-05 R= 8.83D-01
 SS=  1.41D+00  RLast= 1.19D-02 DXNew= 8.4853D-01 3.5775D-02
 Trust test= 8.83D-01 RLast= 1.19D-02 DXMaxT set to 5.05D-01
 The second derivative matrix:
                          R1        R2        R3        R4        A1
           R1           0.49367
           R2          -0.00314   0.85927
           R3          -0.00298   0.01772   0.40127
           R4          -0.00072   0.01774   0.00120   0.39584
           A1           0.03326   0.09615  -0.00016  -0.00805   0.18629
           A2           0.00951   0.02650   0.00566  -0.01384   0.01115
           A3          -0.01171   0.01360  -0.01378   0.00517  -0.01188
           A4           0.00220  -0.04010   0.00813   0.00867   0.00073
           D1           0.00000   0.00000   0.00000   0.00000   0.00000
           D2           0.00000   0.00000   0.00000   0.00000   0.00000
                          A2        A3        A4        D1        D2
           A2           0.11555
           A3          -0.07338   0.12031
           A4          -0.04217  -0.04693   0.08909
           D1           0.00000   0.00000   0.00000   0.10040
           D2           0.00000   0.00000   0.00000  -0.03830   0.08386
 Use linear search instead of GDIIS.
     Eigenvalues ---    0.05295   0.12787   0.13131   0.16337   0.19557
     Eigenvalues ---    0.39716   0.40196   0.49814   0.877211000.00000
 RFO step:  Lambda=-5.60698689D-07 EMin= 5.29538821D-02
 Quartic linear search produced a step of -0.09743.
 Iteration  1 RMS(Cart)=  0.00057279 RMS(Int)=  0.00000033
 Iteration  2 RMS(Cart)=  0.00000033 RMS(Int)=  0.00000000
 Variable       Old X    -DE/DX   Delta X   Delta X   Delta X     New X
                                 (Linear)    (Quad)   (Total)
    R1        1.91752   0.00003  -0.00025   0.00020  -0.00005   1.91747
    R2        2.37549  -0.00093  -0.00093  -0.00025  -0.00119   2.37431
    R3        2.03079   0.00000  -0.00009   0.00010   0.00001   2.03080
    R4        2.04161  -0.00002  -0.00006   0.00008   0.00002   2.04163
    A1        2.00465   0.00014  -0.00030   0.00159   0.00130   2.00595
    A2        2.08135  -0.00002   0.00018  -0.00030  -0.00011   2.08123
    A3        2.18734  -0.00013  -0.00045  -0.00020  -0.00066   2.18669
    A4        2.01450   0.00015   0.00027   0.00050   0.00077   2.01527
    D1       -3.14159   0.00000   0.00000   0.00000   0.00000  -3.14159
    D2        0.00000   0.00000   0.00000   0.00000   0.00000   0.00000
         Item               Value     Threshold  Converged?
 Maximum Force            0.000929     0.000450     NO 
 RMS     Force            0.000304     0.000300     NO 
 Maximum Displacement     0.001327     0.001800     YES
 RMS     Displacement     0.000573     0.001200     YES
 Predicted change in Energy=-7.354687D-07
 GradGradGradGradGradGradGradGradGradGradGradGradGradGradGradGradGradGrad

                          Input orientation:                          
 ---------------------------------------------------------------------
 Center     Atomic      Atomic             Coordinates (Angstroms)
 Number     Number       Type             X           Y           Z
 ---------------------------------------------------------------------
      1          1           0       -1.022351   -1.163986   -0.021934
      2          7           0       -0.823040   -0.170674   -0.078400
      3          6           0        0.326174    0.161604    0.305672
      4          1           0        0.610816    1.197431    0.275377
      5          1           0        1.080985   -0.516943    0.675894
 ---------------------------------------------------------------------
                    Distance matrix (angstroms):
                    1          2          3          4          5
     1  H    0.000000
     2  N    1.014683   0.000000
     3  C    1.919123   1.256429   0.000000
     4  H    2.886506   2.013160   1.074651   0.000000
     5  H    2.308603   2.077059   1.080385   1.822238   0.000000
 Stoichiometry    CH3N
 Framework group  CS[SG(CH3N)]
 Deg. of freedom     7
 Full point group                 CS      NOp   2
 Omega: Change in point group or standard orientation.

 Old FWG=C01  [X(C1H3N1)]
 New FWG=CS   [SG(C1H3N1)]
 Largest Abelian subgroup         CS      NOp   2
 Largest concise Abelian subgroup C1      NOp   1
                         Standard orientation:                         
 ---------------------------------------------------------------------
 Center     Atomic      Atomic             Coordinates (Angstroms)
 Number     Number       Type             X           Y           Z
 ---------------------------------------------------------------------
      1          1           0       -0.890111   -1.059458    0.000000
      2          7           0        0.030010   -0.631723    0.000000
      3          6           0        0.030010    0.624706    0.000000
      4          1           0        0.967677    1.149736    0.000000
      5          1           0       -0.851865    1.248828    0.000000
 ---------------------------------------------------------------------
 Rotational constants (GHZ):    208.8671609     35.1348695     30.0756532
 Standard basis: 3-21G (6D, 7F)
 There are    20 symmetry adapted basis functions of A'  symmetry.
 There are     4 symmetry adapted basis functions of A"  symmetry.
 Integral buffers will be    131072 words long.
 Raffenetti 1 integral format.
 Two-electron integral symmetry is turned on.
    24 basis functions,    39 primitive gaussians,    24 cartesian basis functions
     8 alpha electrons        8 beta electrons
       nuclear repulsion energy        33.2141478463 Hartrees.
 NAtoms=    5 NActive=    5 NUniq=    5 SFac= 7.50D-01 NAtFMM=   80 NAOKFM=F Big=F
 One-electron integrals computed using PRISM.
 NBasis=    24 RedAO= T  NBF=    20     4
 NBsUse=    24 1.00D-06 NBFU=    20     4
 Initial guess read from the read-write file.
 B after Tr=     0.000000    0.000000    0.000000
         Rot=    1.000000    0.000000    0.000000    0.000000 Ang=   0.00 deg.
 Initial guess orbital symmetries:
       Occupied  (A') (A') (A') (A') (A') (A') (A") (A')
       Virtual   (A") (A') (A') (A') (A') (A") (A') (A') (A') (A')
                 (A') (A") (A') (A') (A') (A')
 Requested convergence on RMS density matrix=1.00D-08 within 128 cycles.
 Requested convergence on MAX density matrix=1.00D-06.
 Requested convergence on             energy=1.00D-06.
 No special actions if energy rises.
 Keep R1 ints in memory in canonical form, NReq=865384.
 SCF Done:  E(RHF) =  -93.4947806148     A.U. after   13 cycles
             Convg  =    0.4544D-08             -V/T =  2.0021
 Calling FoFJK, ICntrl=      2127 FMM=F ISym2X=1 I1Cent= 0 IOpClX= 0 NMat=1 NMatS=1 NMatT=0.
 ***** Axes restored to original set *****
 -------------------------------------------------------------------
 Center     Atomic                   Forces (Hartrees/Bohr)
 Number     Number              X              Y              Z
 -------------------------------------------------------------------
      1        1           0.000027437   -0.000010378    0.000011578
      2        7          -0.000048665    0.000026070   -0.000021544
      3        6           0.000018268   -0.000013591    0.000008588
      4        1           0.000002984   -0.000000969    0.000001238
      5        1          -0.000000024   -0.000001131    0.000000140
 -------------------------------------------------------------------
 Cartesian Forces:  Max     0.000048665 RMS     0.000018460

 GradGradGradGradGradGradGradGradGradGradGradGradGradGradGradGradGradGrad
 Berny optimization.
 Using GEDIIS/GDIIS optimizer.
 Internal  Forces:  Max     0.000059573 RMS     0.000019889
 Search for a local minimum.
 Step number   4 out of a maximum of   20
 All quantities printed in internal units (Hartrees-Bohrs-Radians)
 Mixed Optimization -- En-DIIS/RFO-DIIS
 Swaping is turned off.
 Update second derivatives using D2CorX and points    1    2    3    4
 DE= -6.92D-07 DEPred=-7.35D-07 R= 9.41D-01
 Trust test= 9.41D-01 RLast= 2.03D-03 DXMaxT set to 5.05D-01
 The second derivative matrix:
                          R1        R2        R3        R4        A1
           R1           0.49051
           R2           0.00029   0.84727
           R3          -0.00372   0.01772   0.40110
           R4          -0.00157   0.01671   0.00089   0.39567
           A1           0.03329   0.07027   0.00008  -0.00955   0.20435
           A2           0.01005   0.03080   0.00588  -0.01371   0.01056
           A3          -0.01259   0.00418  -0.01440   0.00474  -0.01723
           A4           0.00254  -0.03498   0.00852   0.00897   0.00667
           D1           0.00000   0.00000   0.00000   0.00000   0.00000
           D2           0.00000   0.00000   0.00000   0.00000   0.00000
                          A2        A3        A4        D1        D2
           A2           0.11572
           A3          -0.07284   0.11767
           A4          -0.04288  -0.04483   0.08770
           D1           0.00000   0.00000   0.00000   0.10040
           D2           0.00000   0.00000   0.00000  -0.03830   0.08386
     Eigenvalues ---    0.05295   0.12565   0.13131   0.17470   0.20628
     Eigenvalues ---    0.39709   0.40175   0.49547   0.859061000.00000
 En-DIIS/RFO-DIIS IScMMF=        0 using points:     4    3
 RFO step:  Lambda= 0.00000000D+00.
 DIIS coeffs:      0.93747      0.06253
 Iteration  1 RMS(Cart)=  0.00015347 RMS(Int)=  0.00000002
 Iteration  2 RMS(Cart)=  0.00000002 RMS(Int)=  0.00000000
 ClnCor:  largest displacement from symmetrization is 1.11D-09 for atom     3.
 Variable       Old X    -DE/DX   Delta X   Delta X   Delta X     New X
                                  (DIIS)     (GDIIS)  (Total)
    R1        1.91747   0.00001   0.00000   0.00003   0.00003   1.91750
    R2        2.37431   0.00002   0.00007  -0.00003   0.00005   2.37435
    R3        2.03080   0.00000   0.00000   0.00000   0.00000   2.03079
    R4        2.04163   0.00000   0.00000  -0.00001  -0.00001   2.04162
    A1        2.00595  -0.00006  -0.00008  -0.00024  -0.00032   2.00563
    A2        2.08123   0.00001   0.00001   0.00003   0.00003   2.08127
    A3        2.18669   0.00000   0.00004  -0.00009  -0.00005   2.18664
    A4        2.01527   0.00000  -0.00005   0.00006   0.00002   2.01528
    D1        3.14159   0.00000   0.00000   0.00000   0.00000   3.14159
    D2        0.00000   0.00000   0.00000   0.00000   0.00000   0.00000
         Item               Value     Threshold  Converged?
 Maximum Force            0.000060     0.000450     YES
 RMS     Force            0.000020     0.000300     YES
 Maximum Displacement     0.000342     0.001800     YES
 RMS     Displacement     0.000153     0.001200     YES
 Predicted change in Energy=-1.019729D-08
 Optimization completed.
    -- Stationary point found.
                           ----------------------------
                           !   Optimized Parameters   !
                           ! (Angstroms and Degrees)  !
 --------------------------                            --------------------------
 ! Name  Definition              Value          Derivative Info.                !
 --------------------------------------------------------------------------------
 ! R1    R(1,2)                  1.0147         -DE/DX =    0.0                 !
 ! R2    R(2,3)                  1.2564         -DE/DX =    0.0                 !
 ! R3    R(3,4)                  1.0747         -DE/DX =    0.0                 !
 ! R4    R(3,5)                  1.0804         -DE/DX =    0.0                 !
 ! A1    A(1,2,3)              114.9323         -DE/DX =   -0.0001              !
 ! A2    A(2,3,4)              119.2459         -DE/DX =    0.0                 !
 ! A3    A(2,3,5)              125.2879         -DE/DX =    0.0                 !
 ! A4    A(4,3,5)              115.4663         -DE/DX =    0.0                 !
 ! D1    D(1,2,3,4)            180.0            -DE/DX =    0.0                 !
 ! D2    D(1,2,3,5)              0.0            -DE/DX =    0.0                 !
 --------------------------------------------------------------------------------
 GradGradGradGradGradGradGradGradGradGradGradGradGradGradGradGradGradGrad

                          Input orientation:                          
 ---------------------------------------------------------------------
 Center     Atomic      Atomic             Coordinates (Angstroms)
 Number     Number       Type             X           Y           Z
 ---------------------------------------------------------------------
      1          1           0       -1.022351   -1.163986   -0.021934
      2          7           0       -0.823040   -0.170674   -0.078400
      3          6           0        0.326174    0.161604    0.305672
      4          1           0        0.610816    1.197431    0.275377
      5          1           0        1.080985   -0.516943    0.675894
 ---------------------------------------------------------------------
                    Distance matrix (angstroms):
                    1          2          3          4          5
     1  H    0.000000
     2  N    1.014683   0.000000
     3  C    1.919123   1.256429   0.000000
     4  H    2.886506   2.013160   1.074651   0.000000
     5  H    2.308603   2.077059   1.080385   1.822238   0.000000
 Stoichiometry    CH3N
 Framework group  CS[SG(CH3N)]
 Deg. of freedom     7
 Full point group                 CS      NOp   2
 Largest Abelian subgroup         CS      NOp   2
 Largest concise Abelian subgroup C1      NOp   1
                         Standard orientation:                         
 ---------------------------------------------------------------------
 Center     Atomic      Atomic             Coordinates (Angstroms)
 Number     Number       Type             X           Y           Z
 ---------------------------------------------------------------------
      1          1           0       -0.890111   -1.059458    0.000000
      2          7           0        0.030010   -0.631723    0.000000
      3          6           0        0.030010    0.624706    0.000000
      4          1           0        0.967677    1.149736    0.000000
      5          1           0       -0.851865    1.248828    0.000000
 ---------------------------------------------------------------------
 Rotational constants (GHZ):    208.8671609     35.1348695     30.0756532

 **********************************************************************

            Population analysis using the SCF density.

 **********************************************************************

 Orbital symmetries:
       Occupied  (A') (A') (A') (A') (A') (A') (A") (A')
       Virtual   (A") (A') (A') (A') (A') (A") (A') (A') (A') (A')
                 (A') (A") (A') (A') (A') (A')
 The electronic state is 1-A'.
 Alpha  occ. eigenvalues --  -15.48497 -11.21893  -1.22173  -0.84346  -0.68757
 Alpha  occ. eigenvalues --   -0.60735  -0.44811  -0.40711
 Alpha virt. eigenvalues --    0.17755   0.27773   0.31254   0.38454   0.53446
 Alpha virt. eigenvalues --    0.97636   1.00211   1.03678   1.16182   1.26701
 Alpha virt. eigenvalues --    1.33757   1.45709   1.55614   1.64264   1.75312
 Alpha virt. eigenvalues --    2.70665
          Condensed to atoms (all electrons):
              1          2          3          4          5
     1  H    0.456056   0.320828  -0.064301   0.005577  -0.010005
     2  N    0.320828   6.853282   0.512756  -0.050401  -0.056172
     3  C   -0.064301   0.512756   4.923518   0.375531   0.362812
     4  H    0.005577  -0.050401   0.375531   0.501129  -0.048047
     5  H   -0.010005  -0.056172   0.362812  -0.048047   0.568856
 Mulliken atomic charges:
              1
     1  H    0.291843
     2  N   -0.580294
     3  C   -0.110316
     4  H    0.216211
     5  H    0.182555
 Sum of Mulliken atomic charges =   0.00000
 Mulliken charges with hydrogens summed into heavy atoms:
              1
     2  N   -0.288450
     3  C    0.288450
 Sum of Mulliken charges with hydrogens summed into heavy atoms =   0.00000
 Electronic spatial extent (au):  <R**2>=             69.2635
 Charge=              0.0000 electrons
 Dipole moment (field-independent basis, Debye):
    X=             -1.6889    Y=              1.4410    Z=              0.0000  Tot=              2.2202
 Quadrupole moment (field-independent basis, Debye-Ang):
   XX=            -11.5923   YY=            -12.3544   ZZ=            -13.4735
   XY=              2.1825   XZ=              0.0000   YZ=              0.0000
 Traceless Quadrupole moment (field-independent basis, Debye-Ang):
   XX=              0.8811   YY=              0.1190   ZZ=             -1.0001
   XY=              2.1825   XZ=              0.0000   YZ=              0.0000
 Octapole moment (field-independent basis, Debye-Ang**2):
  XXX=             -0.7516  YYY=             -1.2287  ZZZ=              0.0000  XYY=             -1.9662
  XXY=             -0.6792  XXZ=              0.0000  XZZ=             -0.0401  YZZ=             -1.1414
  YYZ=              0.0000  XYZ=              0.0000
 Hexadecapole moment (field-independent basis, Debye-Ang**3):
 XXXX=            -19.1802 YYYY=            -52.0350 ZZZZ=            -11.9903 XXXY=              0.5112
 XXXZ=              0.0000 YYYX=              1.0411 YYYZ=              0.0000 ZZZX=              0.0000
 ZZZY=              0.0000 XXYY=            -10.3006 XXZZ=             -5.6552 YYZZ=            -11.1693
 XXYZ=              0.0000 YYXZ=              0.0000 ZZXY=             -0.3421
 N-N= 3.321414784635D+01 E-N=-2.848740289345D+02  KE= 9.329466388411D+01
 Symmetry A'   KE= 9.080220854882D+01
 Symmetry A"   KE= 2.492455335291D+00
 1\1\GINC-V1020-WN-73-216\FOpt\RHF\3-21G\C1H3N1\X358CHEN\21-Oct-2016\0\
 \# opt=calcfc freq hf/3-21g symmetry=com\\24_reactant\\0,1\H,-1.022351
 1277,-1.1639856198,-0.0219340925\N,-0.8230404136,-0.17067417,-0.078400
 4032\C,0.3261736243,0.1616044104,0.3056719284\H,0.6108164129,1.1974308
 134,0.2753770336\H,1.0809846225,-0.5169434074,0.6758939841\\Version=EM
 64M-G09RevA.02\State=1-A'\HF=-93.4947806\RMSD=4.544e-09\RMSF=1.846e-05
 \Dipole=0.6571661,-0.4857101,0.3085098\Quadrupole=-0.6057715,1.4155316
 ,-0.8097601,1.2524484,-0.1134524,0.1822065\PG=CS [SG(C1H3N1)]\\@


 TERRY FORSTER, PORTLY ATLANTA BRAVES RELIEVER,
 ANNOUNCING THAT HE WAS GOING TO A FAT FARM:
 "A WAIST IS A TERRIBLE THING TO MIND."
 Job cpu time:  0 days  0 hours  0 minutes  3.1 seconds.
 File lengths (MBytes):  RWF=      5 Int=      0 D2E=      0 Chk=      1 Scr=      1
 Normal termination of Gaussian 09 at Fri Oct 21 16:08:37 2016.
 Link1:  Proceeding to internal job step number  2.
 --------------------------------------------------------------
 #N Geom=AllCheck Guess=TCheck SCRF=Check GenChk RHF/3-21G Freq
 --------------------------------------------------------------
 1/10=4,29=7,30=1,38=1,40=1/1,3;
 2/12=2,21=2,40=1/2;
 3/5=5,11=1,14=-4,16=1,25=1,30=1,70=2,71=2,116=1/1,2,3;
 4/5=101/1;
 5/5=2,98=1/2;
 8/6=4,10=90,11=11/1;
 10/13=10,15=4/2;
 11/6=3,8=1,9=11,15=111,16=1/1,2,10;
 10/6=1/2;
 6/7=2,8=2,9=2,10=2,18=1,28=1/1;
 7/8=1,10=1,25=1/1,2,3,16;
 1/10=4,30=1/3;
 99//99;
 -----------
 24_reactant
 -----------
 Redundant internal coordinates taken from checkpoint file:
 r.chk
 Charge =  0 Multiplicity = 1
 H,0,-1.0223511277,-1.1639856198,-0.0219340925
 N,0,-0.8230404136,-0.17067417,-0.0784004032
 C,0,0.3261736243,0.1616044104,0.3056719284
 H,0,0.6108164129,1.1974308134,0.2753770336
 H,0,1.0809846225,-0.5169434074,0.6758939841
 Recover connectivity data from disk.

 GradGradGradGradGradGradGradGradGradGradGradGradGradGradGradGradGradGrad
 Berny optimization.
 Initialization pass.
                           ----------------------------
                           !    Initial Parameters    !
                           ! (Angstroms and Degrees)  !
 --------------------------                            --------------------------
 ! Name  Definition              Value          Derivative Info.                !
 --------------------------------------------------------------------------------
 ! R1    R(1,2)                  1.0147         calculate D2E/DX2 analytically  !
 ! R2    R(2,3)                  1.2564         calculate D2E/DX2 analytically  !
 ! R3    R(3,4)                  1.0747         calculate D2E/DX2 analytically  !
 ! R4    R(3,5)                  1.0804         calculate D2E/DX2 analytically  !
 ! A1    A(1,2,3)              114.9323         calculate D2E/DX2 analytically  !
 ! A2    A(2,3,4)              119.2459         calculate D2E/DX2 analytically  !
 ! A3    A(2,3,5)              125.2879         calculate D2E/DX2 analytically  !
 ! A4    A(4,3,5)              115.4663         calculate D2E/DX2 analytically  !
 ! D1    D(1,2,3,4)            180.0            calculate D2E/DX2 analytically  !
 ! D2    D(1,2,3,5)              0.0            calculate D2E/DX2 analytically  !
 --------------------------------------------------------------------------------
 Trust Radius=3.00D-01 FncErr=1.00D-07 GrdErr=1.00D-07
 Number of steps in this run=   2 maximum allowed number of steps=   2.
 GradGradGradGradGradGradGradGradGradGradGradGradGradGradGradGradGradGrad

                          Input orientation:                          
 ---------------------------------------------------------------------
 Center     Atomic      Atomic             Coordinates (Angstroms)
 Number     Number       Type             X           Y           Z
 ---------------------------------------------------------------------
      1          1           0       -1.022351   -1.163986   -0.021934
      2          7           0       -0.823040   -0.170674   -0.078400
      3          6           0        0.326174    0.161604    0.305672
      4          1           0        0.610816    1.197431    0.275377
      5          1           0        1.080985   -0.516943    0.675894
 ---------------------------------------------------------------------
                    Distance matrix (angstroms):
                    1          2          3          4          5
     1  H    0.000000
     2  N    1.014683   0.000000
     3  C    1.919123   1.256429   0.000000
     4  H    2.886506   2.013160   1.074651   0.000000
     5  H    2.308603   2.077059   1.080385   1.822238   0.000000
 Stoichiometry    CH3N
 Framework group  CS[SG(CH3N)]
 Deg. of freedom     7
 Full point group                 CS      NOp   2
 Largest Abelian subgroup         CS      NOp   2
 Largest concise Abelian subgroup C1      NOp   1
                         Standard orientation:                         
 ---------------------------------------------------------------------
 Center     Atomic      Atomic             Coordinates (Angstroms)
 Number     Number       Type             X           Y           Z
 ---------------------------------------------------------------------
      1          1           0       -0.890111   -1.059458    0.000000
      2          7           0        0.030010   -0.631723    0.000000
      3          6           0        0.030010    0.624706    0.000000
      4          1           0        0.967677    1.149736    0.000000
      5          1           0       -0.851865    1.248828    0.000000
 ---------------------------------------------------------------------
 Rotational constants (GHZ):    208.8671609     35.1348695     30.0756532
 Standard basis: 3-21G (6D, 7F)
 There are    20 symmetry adapted basis functions of A'  symmetry.
 There are     4 symmetry adapted basis functions of A"  symmetry.
 Integral buffers will be    131072 words long.
 Raffenetti 1 integral format.
 Two-electron integral symmetry is turned on.
    24 basis functions,    39 primitive gaussians,    24 cartesian basis functions
     8 alpha electrons        8 beta electrons
       nuclear repulsion energy        33.2141478463 Hartrees.
 NAtoms=    5 NActive=    5 NUniq=    5 SFac= 7.50D-01 NAtFMM=   80 NAOKFM=F Big=F
 One-electron integrals computed using PRISM.
 NBasis=    24 RedAO= T  NBF=    20     4
 NBsUse=    24 1.00D-06 NBFU=    20     4
 Initial guess read from the checkpoint file:  r.chk
 B after Tr=     0.000000    0.000000    0.000000
         Rot=    1.000000    0.000000    0.000000    0.000000 Ang=   0.00 deg.
 Initial guess orbital symmetries:
       Occupied  (A') (A') (A') (A') (A') (A') (A") (A')
       Virtual   (A") (A') (A') (A') (A') (A") (A') (A') (A') (A')
                 (A') (A") (A') (A') (A') (A')
 Requested convergence on RMS density matrix=1.00D-08 within 128 cycles.
 Requested convergence on MAX density matrix=1.00D-06.
 Requested convergence on             energy=1.00D-06.
 No special actions if energy rises.
 Keep R1 ints in memory in canonical form, NReq=865384.
 SCF Done:  E(RHF) =  -93.4947806148     A.U. after    1 cycles
             Convg  =    0.3924D-09             -V/T =  2.0021
 Range of M.O.s used for correlation:     1    24
 NBasis=    24 NAE=     8 NBE=     8 NFC=     0 NFV=     0
 NROrb=     24 NOA=     8 NOB=     8 NVA=    16 NVB=    16
          Differentiating once with respect to electric field.
                with respect to dipole field.
          Electric field/nuclear overlap derivatives assumed to be zero.
          Keep R1 ints in memory in canonical form, NReq=845618.
          There are     3 degrees of freedom in the 1st order CPHF.  IDoFFX=0.
      3 vectors produced by pass  0 Test12= 4.27D-15 3.33D-08 XBig12= 6.96D+00 2.04D+00.
 AX will form     3 AO Fock derivatives at one time.
      3 vectors produced by pass  1 Test12= 4.27D-15 3.33D-08 XBig12= 6.88D-01 2.91D-01.
      3 vectors produced by pass  2 Test12= 4.27D-15 3.33D-08 XBig12= 6.46D-02 1.14D-01.
      3 vectors produced by pass  3 Test12= 4.27D-15 3.33D-08 XBig12= 1.65D-03 1.34D-02.
      3 vectors produced by pass  4 Test12= 4.27D-15 3.33D-08 XBig12= 1.58D-05 1.70D-03.
      3 vectors produced by pass  5 Test12= 4.27D-15 3.33D-08 XBig12= 9.23D-08 1.15D-04.
      3 vectors produced by pass  6 Test12= 4.27D-15 3.33D-08 XBig12= 6.44D-10 9.78D-06.
      3 vectors produced by pass  7 Test12= 4.27D-15 3.33D-08 XBig12= 5.96D-12 9.96D-07.
      1 vectors produced by pass  8 Test12= 4.27D-15 3.33D-08 XBig12= 4.19D-14 6.73D-08.
 Inverted reduced A of dimension    25 with in-core refinement.
 End of Minotr Frequency-dependent properties file   721 does not exist.
 End of Minotr Frequency-dependent properties file   722 does not exist.
 Symmetrizing basis deriv contribution to polar:
 IMax=3 JMax=2 DiffMx= 0.00D+00
 G2DrvN: will do     6 centers at a time, making    1 passes doing MaxLOS=1.
 Calling FoFCou, ICntrl=  3107 FMM=F I1Cent=   0 AccDes= 0.00D+00.
 FoFDir/FoFCou used for L=0 through L=1.
 End of G2Drv Frequency-dependent properties file   721 does not exist.
 End of G2Drv Frequency-dependent properties file   722 does not exist.
          IDoAtm=11111
          Differentiating once with respect to electric field.
                with respect to dipole field.
          Differentiating once with respect to nuclear coordinates.
          Keep R1 ints in memory in canonical form, NReq=845723.
          There are    18 degrees of freedom in the 1st order CPHF.  IDoFFX=5.
 Will reuse    3 saved solutions.
     12 vectors produced by pass  0 Test12= 7.11D-16 5.56D-09 XBig12= 7.30D-02 9.61D-02.
 AX will form    12 AO Fock derivatives at one time.
     12 vectors produced by pass  1 Test12= 7.11D-16 5.56D-09 XBig12= 3.30D-03 3.44D-02.
     12 vectors produced by pass  2 Test12= 7.11D-16 5.56D-09 XBig12= 4.54D-05 2.35D-03.
     12 vectors produced by pass  3 Test12= 7.11D-16 5.56D-09 XBig12= 1.66D-07 1.22D-04.
     12 vectors produced by pass  4 Test12= 7.11D-16 5.56D-09 XBig12= 9.68D-10 1.07D-05.
     12 vectors produced by pass  5 Test12= 7.11D-16 5.56D-09 XBig12= 2.33D-12 4.02D-07.
      4 vectors produced by pass  6 Test12= 7.11D-16 5.56D-09 XBig12= 7.61D-15 2.49D-08.
 Inverted reduced A of dimension    76 with in-core refinement.
 Isotropic polarizability for W=    0.000000       14.54 Bohr**3.
 End of Minotr Frequency-dependent properties file   721 does not exist.
 End of Minotr Frequency-dependent properties file   722 does not exist.

 **********************************************************************

            Population analysis using the SCF density.

 **********************************************************************

 Orbital symmetries:
       Occupied  (A') (A') (A') (A') (A') (A') (A") (A')
       Virtual   (A") (A') (A') (A') (A') (A") (A') (A') (A') (A')
                 (A') (A") (A') (A') (A') (A')
 The electronic state is 1-A'.
 Alpha  occ. eigenvalues --  -15.48497 -11.21893  -1.22173  -0.84346  -0.68757
 Alpha  occ. eigenvalues --   -0.60735  -0.44811  -0.40711
 Alpha virt. eigenvalues --    0.17755   0.27773   0.31254   0.38454   0.53446
 Alpha virt. eigenvalues --    0.97636   1.00211   1.03678   1.16182   1.26701
 Alpha virt. eigenvalues --    1.33757   1.45709   1.55614   1.64264   1.75312
 Alpha virt. eigenvalues --    2.70665
          Condensed to atoms (all electrons):
              1          2          3          4          5
     1  H    0.456056   0.320828  -0.064301   0.005577  -0.010005
     2  N    0.320828   6.853282   0.512756  -0.050401  -0.056172
     3  C   -0.064301   0.512756   4.923518   0.375531   0.362812
     4  H    0.005577  -0.050401   0.375531   0.501129  -0.048047
     5  H   -0.010005  -0.056172   0.362812  -0.048047   0.568856
 Mulliken atomic charges:
              1
     1  H    0.291843
     2  N   -0.580294
     3  C   -0.110316
     4  H    0.216211
     5  H    0.182555
 Sum of Mulliken atomic charges =   0.00000
 Mulliken charges with hydrogens summed into heavy atoms:
              1
     2  N   -0.288450
     3  C    0.288450
 Sum of Mulliken charges with hydrogens summed into heavy atoms =   0.00000
 APT atomic charges:
              1
     1  H    0.190069
     2  N   -0.460539
     3  C    0.273062
     4  H   -0.007423
     5  H    0.004832
 Sum of APT charges=   0.00000
 APT Atomic charges with hydrogens summed into heavy atoms:
              1
     1  H    0.000000
     2  N   -0.270470
     3  C    0.270470
     4  H    0.000000
     5  H    0.000000
 Sum of APT charges=   0.00000
 Electronic spatial extent (au):  <R**2>=             69.2635
 Charge=              0.0000 electrons
 Dipole moment (field-independent basis, Debye):
    X=             -1.6889    Y=              1.4410    Z=              0.0000  Tot=              2.2202
 Quadrupole moment (field-independent basis, Debye-Ang):
   XX=            -11.5923   YY=            -12.3544   ZZ=            -13.4735
   XY=              2.1825   XZ=              0.0000   YZ=              0.0000
 Traceless Quadrupole moment (field-independent basis, Debye-Ang):
   XX=              0.8811   YY=              0.1190   ZZ=             -1.0001
   XY=              2.1825   XZ=              0.0000   YZ=              0.0000
 Octapole moment (field-independent basis, Debye-Ang**2):
  XXX=             -0.7516  YYY=             -1.2287  ZZZ=              0.0000  XYY=             -1.9662
  XXY=             -0.6792  XXZ=              0.0000  XZZ=             -0.0401  YZZ=             -1.1414
  YYZ=              0.0000  XYZ=              0.0000
 Hexadecapole moment (field-independent basis, Debye-Ang**3):
 XXXX=            -19.1802 YYYY=            -52.0350 ZZZZ=            -11.9903 XXXY=              0.5112
 XXXZ=              0.0000 YYYX=              1.0411 YYYZ=              0.0000 ZZZX=              0.0000
 ZZZY=              0.0000 XXYY=            -10.3006 XXZZ=             -5.6552 YYZZ=            -11.1693
 XXYZ=              0.0000 YYXZ=              0.0000 ZZXY=             -0.3421
 N-N= 3.321414784635D+01 E-N=-2.848740289240D+02  KE= 9.329466387948D+01
 Symmetry A'   KE= 9.080220854495D+01
 Symmetry A"   KE= 2.492455334530D+00
  Exact polarizability:  14.507   2.396  23.558   0.000   0.000   5.565
 Approx polarizability:  11.410   1.097  21.188   0.000   0.000   4.499
 Calling FoFJK, ICntrl=    100127 FMM=F ISym2X=1 I1Cent= 0 IOpClX= 0 NMat=1 NMatS=1 NMatT=0.
 Full mass-weighted force constant matrix:
 Low frequencies ---  -11.4175   -4.9249    0.0011    0.0016    0.0017    3.1258
 Low frequencies --- 1173.5170 1234.3763 1285.2249
 Diagonal vibrational polarizability:
        0.1638124       2.2122702       1.5109873
 Diagonal vibrational hyperpolarizability:
       -0.9930294      -4.2839367       0.0000000
 Harmonic frequencies (cm**-1), IR intensities (KM/Mole), Raman scattering
 activities (A**4/AMU), depolarization ratios for plane and unpolarized
 incident light, reduced masses (AMU), force constants (mDyne/A),
 and normal coordinates:
                     1                      2                      3
                    A'                     A"                     A"
 Frequencies --  1173.5170              1234.3763              1285.2249
 Red. masses --     1.0680                 1.3560                 1.0836
 Frc consts  --     0.8666                 1.2173                 1.0546
 IR Inten    --    55.5561                26.9867                63.4881
 Raman Activ --     3.9958                 0.1489                 0.1770
 Depolar (P) --     0.7111                 0.7500                 0.7500
 Depolar (U) --     0.8312                 0.8571                 0.8571
  Atom  AN      X      Y      Z        X      Y      Z        X      Y      Z
     1   1     0.32  -0.61   0.00     0.00   0.00  -0.01     0.00   0.00   0.81
     2   7     0.00   0.03   0.00     0.00   0.00   0.05     0.00   0.00  -0.08
     3   6    -0.07   0.01   0.00     0.00   0.00  -0.17     0.00   0.00   0.01
     4   1     0.20  -0.44   0.00     0.00   0.00   0.67     0.00   0.00   0.47
     5   1     0.26   0.47   0.00     0.00   0.00   0.72     0.00   0.00  -0.34
                     4                      5                      6
                    A'                     A'                     A'
 Frequencies --  1483.5336              1640.9144              1848.7473
 Red. masses --     1.4293                 1.2772                 3.3682
 Frc consts  --     1.8534                 2.0261                 6.7827
 IR Inten    --    74.5170                 9.0813                13.4080
 Raman Activ --     5.0029                24.0643                 8.4997
 Depolar (P) --     0.5426                 0.4276                 0.1417
 Depolar (U) --     0.7035                 0.5990                 0.2482
  Atom  AN      X      Y      Z        X      Y      Z        X      Y      Z
     1   1    -0.29   0.70   0.00     0.05   0.08   0.00     0.06   0.26   0.00
     2   7     0.12  -0.06   0.00     0.00   0.13   0.00     0.01   0.25   0.00
     3   6    -0.13   0.01   0.00     0.00  -0.06   0.00    -0.03  -0.37   0.00
     4   1     0.11  -0.45   0.00     0.30  -0.66   0.00    -0.44   0.34   0.00
     5   1     0.14   0.38   0.00    -0.33  -0.58   0.00     0.52   0.38   0.00
                     7                      8                      9
                    A'                     A'                     A'
 Frequencies --  3225.3582              3327.2573              3575.1848
 Red. masses --     1.0657                 1.1064                 1.0765
 Frc consts  --     6.5320                 7.2164                 8.1073
 IR Inten    --    30.0253                42.3275                 1.1334
 Raman Activ --    85.2130                85.0986               122.6038
 Depolar (P) --     0.2167                 0.4950                 0.3195
 Depolar (U) --     0.3562                 0.6622                 0.4842
  Atom  AN      X      Y      Z        X      Y      Z        X      Y      Z
     1   1     0.03   0.03   0.00     0.07   0.02   0.00     0.88   0.45   0.00
     2   7     0.00   0.00   0.00     0.00   0.00   0.00    -0.06  -0.04   0.00
     3   6     0.03  -0.06   0.00     0.09   0.02   0.00    -0.01   0.01   0.00
     4   1     0.33   0.16   0.00    -0.81  -0.45   0.00     0.05   0.02   0.00
     5   1    -0.77   0.52   0.00    -0.27   0.21   0.00     0.05  -0.03   0.00

 -------------------
 - Thermochemistry -
 -------------------
 Temperature   298.150 Kelvin.  Pressure   1.00000 Atm.
 Atom     1 has atomic number  1 and mass   1.00783
 Atom     2 has atomic number  7 and mass  14.00307
 Atom     3 has atomic number  6 and mass  12.00000
 Atom     4 has atomic number  1 and mass   1.00783
 Atom     5 has atomic number  1 and mass   1.00783
 Molecular mass:    29.02655 amu.
 Principal axes and moments of inertia in atomic units:
                           1         2         3
     Eigenvalues --     8.64062  51.36610  60.00672
           X            0.08042   0.99676   0.00000
           Y            0.99676  -0.08042   0.00000
           Z            0.00000   0.00000   1.00000
 This molecule is an asymmetric top.
 Rotational symmetry number  1.
 Rotational temperatures (Kelvin)     10.02403     1.68621     1.44340
 Rotational constants (GHZ):         208.86716    35.13487    30.07565
 Zero-point vibrational energy     112413.8 (Joules/Mol)
                                   26.86753 (Kcal/Mol)
 Vibrational temperatures:   1688.43  1775.99  1849.15  2134.47  2360.91
          (Kelvin)           2659.93  4640.57  4787.18  5143.89
 
 Zero-point correction=                           0.042816 (Hartree/Particle)
 Thermal correction to Energy=                    0.045703
 Thermal correction to Enthalpy=                  0.046647
 Thermal correction to Gibbs Free Energy=         0.020947
 Sum of electronic and zero-point Energies=            -93.451964
 Sum of electronic and thermal Energies=               -93.449078
 Sum of electronic and thermal Enthalpies=             -93.448134
 Sum of electronic and thermal Free Energies=          -93.473834
 
                     E (Thermal)             CV                S
                      KCal/Mol        Cal/Mol-Kelvin    Cal/Mol-Kelvin
 Total                   28.679              6.669             54.091
 Electronic               0.000              0.000              0.000
 Translational            0.889              2.981             36.031
 Rotational               0.889              2.981             17.928
 Vibrational             26.902              0.708              0.133
                       Q            Log10(Q)             Ln(Q)
 Total Bot       0.231878D-09         -9.634740        -22.184808
 Total V=0       0.114624D+11         10.059276         23.162339
 Vib (Bot)       0.204200D-19        -19.689945        -45.337774
 Vib (V=0)       0.100942D+01          0.004071          0.009373
 Electronic      0.100000D+01          0.000000          0.000000
 Translational   0.614679D+07          6.788648         15.631440
 Rotational      0.184738D+04          3.266557          7.521526
 ***** Axes restored to original set *****
 -------------------------------------------------------------------
 Center     Atomic                   Forces (Hartrees/Bohr)
 Number     Number              X              Y              Z
 -------------------------------------------------------------------
      1        1           0.000027438   -0.000010379    0.000011578
      2        7          -0.000048665    0.000026070   -0.000021544
      3        6           0.000018268   -0.000013591    0.000008588
      4        1           0.000002984   -0.000000969    0.000001238
      5        1          -0.000000024   -0.000001131    0.000000140
 -------------------------------------------------------------------
 Cartesian Forces:  Max     0.000048665 RMS     0.000018460

 GradGradGradGradGradGradGradGradGradGradGradGradGradGradGradGradGradGrad
 Berny optimization.
 Internal  Forces:  Max     0.000059574 RMS     0.000019889
 Search for a local minimum.
 Step number   1 out of a maximum of    2
 All quantities printed in internal units (Hartrees-Bohrs-Radians)
 Second derivative matrix not updated -- analytic derivatives used.
 The second derivative matrix:
                          R1        R2        R3        R4        A1
           R1           0.45488
           R2           0.00223   0.85438
           R3          -0.00143   0.01865   0.38827
           R4           0.00229   0.01735   0.00400   0.37154
           A1           0.03753   0.07975   0.00084  -0.00815   0.22239
           A2           0.00846   0.02731   0.00631  -0.01584   0.01021
           A3          -0.00801   0.01041  -0.01478   0.00637  -0.00849
           A4          -0.00045  -0.03772   0.00847   0.00947  -0.00172
           D1           0.00000   0.00000   0.00000   0.00000   0.00000
           D2           0.00000   0.00000   0.00000   0.00000   0.00000
                          A2        A3        A4        D1        D2
           A2           0.12156
           A3          -0.07382   0.12093
           A4          -0.04774  -0.04711   0.09486
           D1           0.00000   0.00000   0.00000   0.10239
           D2           0.00000   0.00000   0.00000  -0.03376   0.08100
     Eigenvalues ---    0.05628   0.12710   0.13790   0.18743   0.21064
     Eigenvalues ---    0.37344   0.38968   0.46094   0.868781000.00000
 Angle between quadratic step and forces=   8.75 degrees.
 Linear search not attempted -- first point.
 Iteration  1 RMS(Cart)=  0.00013694 RMS(Int)=  0.00000002
 Iteration  2 RMS(Cart)=  0.00000002 RMS(Int)=  0.00000000
 ClnCor:  largest displacement from symmetrization is 1.41D-08 for atom     3.
 Variable       Old X    -DE/DX   Delta X   Delta X   Delta X     New X
                                 (Linear)    (Quad)   (Total)
    R1        1.91747   0.00001   0.00000   0.00003   0.00003   1.91751
    R2        2.37431   0.00002   0.00000   0.00005   0.00005   2.37435
    R3        2.03080   0.00000   0.00000   0.00000   0.00000   2.03079
    R4        2.04163   0.00000   0.00000   0.00000   0.00000   2.04163
    A1        2.00595  -0.00006   0.00000  -0.00029  -0.00029   2.00565
    A2        2.08123   0.00001   0.00000   0.00003   0.00003   2.08127
    A3        2.18669   0.00000   0.00000  -0.00003  -0.00003   2.18665
    A4        2.01527   0.00000   0.00000   0.00000   0.00000   2.01526
    D1        3.14159   0.00000   0.00000   0.00000   0.00000   3.14159
    D2        0.00000   0.00000   0.00000   0.00000   0.00000   0.00000
         Item               Value     Threshold  Converged?
 Maximum Force            0.000060     0.000450     YES
 RMS     Force            0.000020     0.000300     YES
 Maximum Displacement     0.000303     0.001800     YES
 RMS     Displacement     0.000137     0.001200     YES
 Predicted change in Energy=-9.432193D-09
 Optimization completed.
    -- Stationary point found.
                           ----------------------------
                           !   Optimized Parameters   !
                           ! (Angstroms and Degrees)  !
 --------------------------                            --------------------------
 ! Name  Definition              Value          Derivative Info.                !
 --------------------------------------------------------------------------------
 ! R1    R(1,2)                  1.0147         -DE/DX =    0.0                 !
 ! R2    R(2,3)                  1.2564         -DE/DX =    0.0                 !
 ! R3    R(3,4)                  1.0747         -DE/DX =    0.0                 !
 ! R4    R(3,5)                  1.0804         -DE/DX =    0.0                 !
 ! A1    A(1,2,3)              114.9323         -DE/DX =   -0.0001              !
 ! A2    A(2,3,4)              119.2459         -DE/DX =    0.0                 !
 ! A3    A(2,3,5)              125.2879         -DE/DX =    0.0                 !
 ! A4    A(4,3,5)              115.4663         -DE/DX =    0.0                 !
 ! D1    D(1,2,3,4)            180.0            -DE/DX =    0.0                 !
 ! D2    D(1,2,3,5)              0.0            -DE/DX =    0.0                 !
 --------------------------------------------------------------------------------
 GradGradGradGradGradGradGradGradGradGradGradGradGradGradGradGradGradGrad

 1\1\GINC-V1020-WN-73-216\Freq\RHF\3-21G\C1H3N1\X358CHEN\21-Oct-2016\0\
 \#N Geom=AllCheck Guess=TCheck SCRF=Check GenChk RHF/3-21G Freq\\24_re
 actant\\0,1\H,-1.0223511277,-1.1639856198,-0.0219340925\N,-0.823040413
 6,-0.17067417,-0.0784004032\C,0.3261736243,0.1616044104,0.3056719284\H
 ,0.6108164129,1.1974308134,0.2753770336\H,1.0809846225,-0.5169434074,0
 .6758939841\\Version=EM64M-G09RevA.02\State=1-A'\HF=-93.4947806\RMSD=3
 .924e-10\RMSF=1.846e-05\ZeroPoint=0.0428161\Thermal=0.0457029\Dipole=0
 .6571661,-0.4857101,0.3085098\DipoleDeriv=0.3134397,0.0584025,-0.00362
 89,-0.1088762,-0.0437726,0.0050266,0.0183744,0.0672938,0.3005389,-0.65
 50242,-0.109591,-0.040458,0.0750461,-0.205477,-0.0118066,-0.0647446,-0
 .0805352,-0.5211161,0.3786559,0.042674,0.1674248,-0.0263989,0.4537774,
 -0.0808541,0.1765105,-0.0551427,-0.0132478,0.0203035,-0.0571182,-0.022
 492,-0.0278782,-0.13244,0.020317,-0.0263381,0.0094328,0.0898666,-0.057
 3749,0.0656326,-0.1008459,0.0881072,-0.0720877,0.0673171,-0.1038022,0.
 0589513,0.1439585\Polar=20.0928491,4.5326441,16.218267,4.8115628,0.285
 9255,7.3184841\PolarDeriv=-2.3566553,-2.238231,-0.2784988,-0.4101573,-
 0.157547,0.0580697,-2.1097161,-4.6864335,-9.4042204,-0.2451041,-0.7278
 759,-0.0217679,-0.1192686,0.313494,0.6986217,-0.7572888,-1.6183454,-0.
 021268,-9.7591094,-0.5959379,-0.0328363,-1.3427022,-0.0975981,-0.40175
 07,1.6111087,0.3093884,6.9917135,-0.2410258,-0.8403272,0.0404844,0.113
 4031,-0.7597416,-1.0747254,-5.0745634,-0.7196612,-3.9700544,5.1208137,
 3.3418733,-2.6040532,-0.4345665,1.0957558,-0.6231344,1.6078741,-0.8622
 373,-4.0777721,1.5574509,0.3274452,0.1820739,-1.8977261,1.4642763,-0.0
 599122,3.8596052,1.9945238,2.9634477,1.7453091,1.9588554,1.3388963,0.2
 980539,-0.2795733,0.1447546,0.7251593,2.1286817,8.616944,-0.1411707,0.
 0112072,0.3884143,0.3164532,-0.3326174,-0.0528518,0.5130706,2.0849069,
 -0.3415862,5.2496419,-2.4665598,1.576492,1.8893721,-0.5610374,0.822060
 9,-1.8344261,3.1106008,-2.126665,-0.9301504,1.2295507,-0.5892048,1.587
 1385,-0.6854114,0.4888677,1.4591764,-1.7414242,1.3694609\HyperPolar=34
 .4602866,-15.4828719,5.7683919,-5.5435945,8.2763037,-5.3492863,2.87015
 55,11.4058547,-1.9587658,11.0971922\PG=CS [SG(C1H3N1)]\NImag=0\\0.0800
 9012,0.09371214,0.43185057,0.00322346,-0.01688129,0.04173583,-0.057273
 32,-0.10027288,0.01053346,0.74127928,-0.03226292,-0.42023211,0.0366715
 9,0.25495528,0.59476710,0.00158765,0.01135581,-0.05104049,0.21142436,0
 .02761395,0.15826931,-0.02405699,0.00979814,-0.01242056,-0.63300746,-0
 .20224522,-0.18534175,0.92815481,-0.06155921,-0.01843939,-0.01971988,-
 0.13167065,-0.18762855,-0.03270171,0.13779819,0.74905866,-0.00303445,0
 .00684192,0.00381857,-0.19462490,-0.05897212,-0.12831550,0.26075528,-0
 .02369662,0.27913068,-0.00066480,-0.00396563,-0.00801794,-0.02020205,-
 0.04492508,0.00231760,-0.07916970,-0.05480400,-0.00150292,0.09189907,-
 0.00019229,0.00264946,0.00251009,-0.01008531,-0.00397965,-0.00461877,-
 0.06376232,-0.34698296,0.01457107,0.08078582,0.36593128,-0.00851427,0.
 00110552,0.01896171,-0.00226511,-0.01758739,-0.00908285,-0.00032457,0.
 01790569,-0.05824220,0.01144264,-0.01377238,0.03868255,0.00190500,0.00
 072823,0.00668159,-0.03079645,0.02447794,-0.02998786,-0.19192065,0.110
 23567,-0.06159302,0.00813749,-0.00674590,-0.00033869,0.21267460,0.0003
 0228,0.00417147,-0.00258052,-0.01292643,0.01707321,-0.00164928,0.11841
 120,-0.19600776,0.06125575,0.02290889,-0.01761814,0.01234857,-0.128695
 94,0.19238122,0.00673761,-0.00242196,-0.01347562,-0.02506781,0.0122739
 8,0.03016954,-0.06266840,0.05821252,-0.09639154,-0.00423938,0.00130998
 ,0.00968079,0.08523798,-0.06937452,0.07001684\\-0.00002744,0.00001038,
 -0.00001158,0.00004867,-0.00002607,0.00002154,-0.00001827,0.00001359,-
 0.00000859,-0.00000298,0.00000097,-0.00000124,0.00000002,0.00000113,-0
 .00000014\\\@


 ONE THORN OF EXPERIENCE IS WORTH A WHOLE WILDERNESS OF
 WARNING....  LOWELL - AMONG MY BOOKS
 Job cpu time:  0 days  0 hours  0 minutes  1.2 seconds.
 File lengths (MBytes):  RWF=      5 Int=      0 D2E=      0 Chk=      1 Scr=      1
 Normal termination of Gaussian 09 at Fri Oct 21 16:09:12 2016.
