24_reactant                                                             
Freq      RHF                                                         3-21G               
Number of atoms                            I                5
Info1-9                                    I   N=           9
          12          12        1002           0           0         100
           6           1           2
Charge                                     I                0
Multiplicity                               I                1
Number of electrons                        I               16
Number of alpha electrons                  I                8
Number of beta electrons                   I                8
Number of basis functions                  I               24
Number of independent functions            I               24
Number of point charges in /Mol/           I                0
Number of translation vectors              I                0
Atomic numbers                             I   N=           5
           1           7           6           1           1
Nuclear charges                            R   N=           5
  1.00000000E+00  7.00000000E+00  6.00000000E+00  1.00000000E+00  1.00000000E+00
Current cartesian coordinates              R   N=          15
 -1.68206589E+00 -2.00208637E+00 -5.55111512E-17  5.67110624E-02 -1.19378280E+00
  0.00000000E+00  5.67110624E-02  1.18052368E+00 -5.55111512E-17  1.82864451E+00
  2.17268679E+00  1.11022302E-16 -1.60979088E+00  2.35994278E+00 -3.33066907E-16
Force Field                                I                0
Int Atom Types                             I   N=           5
           0           0           0           0           0
MM charges                                 R   N=           5
  0.00000000E+00  0.00000000E+00  0.00000000E+00  0.00000000E+00  0.00000000E+00
Integer atomic weights                     I   N=           5
           1          14          12           1           1
Real atomic weights                        R   N=           5
  1.00782504E+00  1.40030740E+01  1.20000000E+01  1.00782504E+00  1.00782504E+00
Atom fragment info                         I   N=           5
           0           0           0           0           0
Atom residue num                           I   N=           5
           0           0           0           0           0
Nuclear spins                              I   N=           5
           1           2           0           1           1
Nuclear ZEff                               R   N=           5
 -1.00000000E+00 -4.55000000E+00 -3.60000000E+00 -1.00000000E+00 -1.00000000E+00
Nuclear QMom                               R   N=           5
  0.00000000E+00  2.04400000E+00  0.00000000E+00  0.00000000E+00  0.00000000E+00
Nuclear GFac                               R   N=           5
  2.79284600E+00  4.03761000E-01  0.00000000E+00  2.79284600E+00  2.79284600E+00
MicOpt                                     I   N=           5
          -1          -1          -1          -1          -1
Number of contracted shells                I               12
Number of primitive shells                 I               21
Pure/Cartesian d shells                    I                1
Pure/Cartesian f shells                    I                0
Highest angular momentum                   I                1
Largest degree of contraction              I                3
Shell types                                I   N=          12
           0           0           0          -1          -1           0
          -1          -1           0           0           0           0
Number of primitives per shell             I   N=          12
           2           1           3           2           1           3
           2           1           2           1           2           1
Shell to atom map                          I   N=          12
           1           1           2           2           2           3
           3           3           4           4           5           5
Primitive exponents                        R   N=          21
  5.44717800E+00  8.24547240E-01  1.83191580E-01  2.42766000E+02  3.64851000E+01
  7.81449000E+00  5.42522000E+00  1.14915000E+00  2.83205000E-01  1.72256000E+02
  2.59109000E+01  5.53335000E+00  3.66498000E+00  7.70545000E-01  1.95857000E-01
  5.44717800E+00  8.24547240E-01  1.83191580E-01  5.44717800E+00  8.24547240E-01
  1.83191580E-01
Contraction coefficients                   R   N=          21
  1.56284979E-01  9.04690877E-01  1.00000000E+00  5.98657005E-02  3.52955003E-01
  7.06513006E-01 -4.13300077E-01  1.22441727E+00  1.00000000E+00  6.17669074E-02
  3.58794043E-01  7.00713084E-01 -3.95895162E-01  1.21583436E+00  1.00000000E+00
  1.56284979E-01  9.04690877E-01  1.00000000E+00  1.56284979E-01  9.04690877E-01
  1.00000000E+00
P(S=P) Contraction coefficients            R   N=          21
  0.00000000E+00  0.00000000E+00  0.00000000E+00  0.00000000E+00  0.00000000E+00
  0.00000000E+00  2.37972016E-01  8.58953059E-01  1.00000000E+00  0.00000000E+00
  0.00000000E+00  0.00000000E+00  2.36459947E-01  8.60618806E-01  1.00000000E+00
  0.00000000E+00  0.00000000E+00  0.00000000E+00  0.00000000E+00  0.00000000E+00
  0.00000000E+00
Coordinates of each shell                  R   N=          36
 -1.68206589E+00 -2.00208637E+00 -5.55111512E-17 -1.68206589E+00 -2.00208637E+00
 -5.55111512E-17  5.67110624E-02 -1.19378280E+00  0.00000000E+00  5.67110624E-02
 -1.19378280E+00  0.00000000E+00  5.67110624E-02 -1.19378280E+00  0.00000000E+00
  5.67110624E-02  1.18052368E+00  0.00000000E+00  5.67110624E-02  1.18052368E+00
  0.00000000E+00  5.67110624E-02  1.18052368E+00  0.00000000E+00  1.82864451E+00
  2.17268679E+00  5.55111512E-17  1.82864451E+00  2.17268679E+00  5.55111512E-17
 -1.60979088E+00  2.35994278E+00 -2.22044605E-16 -1.60979088E+00  2.35994278E+00
 -2.22044605E-16
Constraint Structure                       R   N=          15
 -1.68206589E+00 -2.00208637E+00 -5.55111512E-17  5.67110624E-02 -1.19378280E+00
  0.00000000E+00  5.67110624E-02  1.18052368E+00  0.00000000E+00  1.82864451E+00
  2.17268679E+00  5.55111512E-17 -1.60979088E+00  2.35994278E+00 -2.22044605E-16
Num ILSW                                   I              100
ILSW                                       I   N=         100
           0           1           0           0           2           0
           0           0           0           0           0          -1
           0           0           0           0           0           0
           0           0           1           0           1           0
           1           0           0           0           0           0
           0           0      100000           0          -1           0
           0           0           0           0           0           0
           0           0           0           1           0           0
           0           0           1           0           0           0
           0           0           4          40           0           0
           0           0           0           0           0           0
           0           0           0           0           0           0
           0           0           0           0           0           0
           0           0           0           0           0           0
           0           0           0           0           0           0
           0           0           0           0           0           0
           0           0           0           0
Num RLSW                                   I               40
RLSW                                       R   N=          40
  1.00000000E+00  1.00000000E+00  1.00000000E+00  1.00000000E+00  1.00000000E+00
  0.00000000E+00  0.00000000E+00  1.00000000E+00  0.00000000E+00  0.00000000E+00
  0.00000000E+00  0.00000000E+00  1.00000000E+00  0.00000000E+00  0.00000000E+00
  0.00000000E+00  0.00000000E+00  1.00000000E+00  0.00000000E+00  0.00000000E+00
  0.00000000E+00  0.00000000E+00  1.00000000E+00  0.00000000E+00  0.00000000E+00
  0.00000000E+00  0.00000000E+00  1.00000000E+00  0.00000000E+00  0.00000000E+00
  0.00000000E+00  0.00000000E+00  0.00000000E+00  0.00000000E+00  0.00000000E+00
  0.00000000E+00  0.00000000E+00  0.00000000E+00  1.00000000E+00  1.00000000E+00
MxBond                                     I                3
NBond                                      I   N=           5
           1           2           3           1           1
IBond                                      I   N=          15
           2           0           0           1           3           0
           2           4           5           3           0           0
           3           0           0
RBond                                      R   N=          15
  1.00000000E+00  0.00000000E+00  0.00000000E+00  1.00000000E+00  2.00000000E+00
  0.00000000E+00  2.00000000E+00  1.00000000E+00  1.00000000E+00  1.00000000E+00
  0.00000000E+00  0.00000000E+00  1.00000000E+00  0.00000000E+00  0.00000000E+00
Virial Ratio                               R      2.002144996583605E+00
SCF Energy                                 R     -9.349478061477362E+01
Total Energy                               R     -9.349478061477362E+01
RMS Force                                  R      1.845994846219986E-05
RMS Density                                R      3.924499504035745E-10
External E-field                           R   N=          35
  0.00000000E+00  0.00000000E+00  0.00000000E+00  0.00000000E+00  0.00000000E+00
  0.00000000E+00  0.00000000E+00  0.00000000E+00  0.00000000E+00  0.00000000E+00
  0.00000000E+00  0.00000000E+00  0.00000000E+00  0.00000000E+00  0.00000000E+00
  0.00000000E+00  0.00000000E+00  0.00000000E+00  0.00000000E+00  0.00000000E+00
  0.00000000E+00  0.00000000E+00  0.00000000E+00  0.00000000E+00  0.00000000E+00
  0.00000000E+00  0.00000000E+00  0.00000000E+00  0.00000000E+00  0.00000000E+00
  0.00000000E+00  0.00000000E+00  0.00000000E+00  0.00000000E+00  0.00000000E+00
IOpCl                                      I                0
IROHF                                      I                0
Alpha Orbital Energies                     R   N=          24
 -1.54849718E+01 -1.12189344E+01 -1.22173470E+00 -8.43460946E-01 -6.87571860E-01
 -6.07351709E-01 -4.48114936E-01 -4.07105503E-01  1.77549248E-01  2.77727533E-01
  3.12535307E-01  3.84539139E-01  5.34460621E-01  9.76364481E-01  1.00210656E+00
  1.03678188E+00  1.16182239E+00  1.26700695E+00  1.33757478E+00  1.45708698E+00
  1.55614397E+00  1.64264443E+00  1.75312253E+00  2.70665001E+00
Alpha MO coefficients                      R   N=         576
  1.99845716E-03  7.33614494E-03  9.85850591E-01  9.97111567E-02 -3.05981691E-03
  3.65587489E-03  0.00000000E+00 -6.11827301E-02  6.15596693E-03 -1.46321811E-02
  0.00000000E+00  1.38737175E-04 -1.13678495E-03 -2.20883578E-04 -6.89182783E-04
  0.00000000E+00  2.51100560E-02 -1.53619577E-03 -1.64332834E-02  0.00000000E+00
 -9.46670639E-04  9.50713385E-04 -1.10494999E-03 -3.12985980E-04 -2.97270891E-04
  1.82924675E-03 -1.14443921E-05 -7.62867478E-04 -1.81771651E-04 -1.76546038E-03
  0.00000000E+00  4.80424886E-03  7.79239210E-04  3.96637655E-04  0.00000000E+00
  9.86384096E-01  9.36420279E-02 -4.78249056E-05 -1.80016180E-04  0.00000000E+00
 -5.05930511E-02 -6.65533535E-04 -4.47715332E-03  0.00000000E+00 -1.94104815E-03
  1.39290723E-02 -1.93421599E-03  1.33361613E-02  9.14508874E-02  8.20135091E-03
 -1.94807879E-01  1.84507526E-01 -5.31763623E-02  1.19907637E-01  0.00000000E+00
  5.76318425E-01 -5.92559641E-02  1.04068163E-01  0.00000000E+00 -1.35785921E-01
  1.53208042E-01 -9.44231673E-03 -1.46404950E-01  0.00000000E+00  1.86338005E-01
 -3.21347827E-03  3.44449908E-02  0.00000000E+00  4.25141088E-02 -1.10760720E-02
  4.40444361E-02 -1.20259882E-02 -1.54893760E-01 -8.17227186E-02  9.37360626E-02
 -8.54632372E-02  1.07444130E-01  1.32631896E-01  0.00000000E+00 -3.49173899E-01
  9.12057768E-02  7.34048690E-02  0.00000000E+00 -1.57887241E-01  1.77890739E-01
  3.76524478E-02  1.18340633E-01  0.00000000E+00  4.75583624E-01  5.03699001E-03
  8.23030846E-02  0.00000000E+00  1.64117145E-01  6.40162802E-02  1.41730195E-01
  4.59732040E-02  1.71201808E-01  1.24965939E-01  2.68183309E-02 -3.26134328E-02
 -2.23002887E-01 -1.88930250E-01  0.00000000E+00 -9.06427894E-02 -1.73119381E-01
 -1.33432385E-01  0.00000000E+00 -1.62121013E-02  4.26768248E-03 -2.27048673E-01
  2.55354292E-01  0.00000000E+00  9.59560717E-02 -1.69509922E-01  1.12701612E-01
  0.00000000E+00 -2.67978175E-02 -2.66586706E-03  2.06919342E-01  1.52699128E-01
 -1.12308621E-01 -1.11820264E-01  3.83026271E-02 -3.19072195E-02 -3.75703976E-02
  2.83330194E-01  0.00000000E+00 -1.57919644E-01 -2.26407217E-02  2.45399106E-01
  0.00000000E+00 -1.28955644E-02  2.76347272E-02 -2.79089179E-01 -2.38820085E-01
  0.00000000E+00 -2.86731098E-02 -2.49655252E-01 -1.12420972E-01  0.00000000E+00
 -2.19700472E-01 -1.61315697E-01  7.98672871E-02  4.38181505E-02  0.00000000E+00
  0.00000000E+00  0.00000000E+00  0.00000000E+00  0.00000000E+00  0.00000000E+00
  3.44601619E-01  0.00000000E+00  0.00000000E+00  0.00000000E+00  3.96921108E-01
  0.00000000E+00  0.00000000E+00  0.00000000E+00  0.00000000E+00  3.13537230E-01
  0.00000000E+00  0.00000000E+00  0.00000000E+00  3.55152963E-01  0.00000000E+00
  0.00000000E+00  0.00000000E+00  0.00000000E+00 -1.32103014E-01 -1.32509874E-01
 -7.95197870E-02  7.22576165E-02  3.58716100E-01 -1.88579038E-01  0.00000000E+00
  3.50141199E-01  4.21372588E-01 -2.51535484E-01  0.00000000E+00  2.06281087E-02
 -3.27809618E-02 -1.52861446E-01  8.61782063E-02  0.00000000E+00  7.42419348E-03
 -6.46088618E-02 -6.41234710E-03  0.00000000E+00 -1.38233710E-01 -1.79874487E-01
  1.59539493E-01  2.39964968E-01  0.00000000E+00  0.00000000E+00  0.00000000E+00
  0.00000000E+00  0.00000000E+00  0.00000000E+00 -3.31518975E-01  0.00000000E+00
  0.00000000E+00  0.00000000E+00 -6.65149220E-01  0.00000000E+00  0.00000000E+00
  0.00000000E+00  0.00000000E+00  3.25684898E-01  0.00000000E+00  0.00000000E+00
  0.00000000E+00  7.17734481E-01  0.00000000E+00  0.00000000E+00  0.00000000E+00
  0.00000000E+00  6.00204856E-02  1.14977287E+00  8.09057920E-02 -1.35029644E-02
  1.47243401E-01  9.50158255E-02  0.00000000E+00 -9.60763215E-01  3.99701590E-01
  2.11466637E-01  0.00000000E+00  6.33457426E-02 -2.28746721E-02  1.27011782E-01
 -1.34719797E-01  0.00000000E+00 -9.10348266E-01  4.08546393E-01 -5.85442669E-01
  0.00000000E+00 -5.81034547E-03  2.08519985E-01  2.66304301E-02  1.21986749E+00
  4.44322583E-02  7.70976847E-01  5.95205498E-02 -2.65169927E-02  9.62642607E-02
  2.44883277E-03  0.00000000E+00 -5.60318396E-01  2.37374878E-01  3.28422445E-02
  0.00000000E+00 -1.29390640E-01  5.55214919E-02  9.62367626E-02  1.19855367E-01
  0.00000000E+00  1.72383116E+00  4.12033433E-01  5.47336001E-01  0.00000000E+00
 -5.23234473E-02 -1.61948885E+00 -1.75926997E-02 -7.87971024E-01  5.72869991E-02
 -6.09228378E-01 -5.87795909E-02  1.12903019E-02 -1.43860090E-01  4.31806292E-02
  0.00000000E+00  8.20340401E-01 -5.84103665E-01  1.84980137E-01  0.00000000E+00
  2.75074078E-02  1.09791068E-02  3.07187169E-01 -3.87312510E-03  0.00000000E+00
 -4.80631405E-01  1.43712745E+00  3.80945718E-01  0.00000000E+00  8.81686426E-03
 -1.39923741E+00  4.09817786E-03  1.47931642E+00  9.15521270E-03  7.63325918E-01
 -9.37942375E-02  7.03512155E-04  1.14828274E-01  2.27496386E-01  0.00000000E+00
  1.76410682E+00  3.86546962E-01  1.31322261E+00  0.00000000E+00  7.20189916E-02
  4.01677926E-02 -7.69562168E-02  1.17692761E-02  0.00000000E+00 -1.63386936E+00
 -3.74199172E-01  2.17703252E+00  0.00000000E+00 -8.02197352E-02  1.89423220E-01
 -4.76991896E-03 -6.76592821E-01  0.00000000E+00  0.00000000E+00  0.00000000E+00
  0.00000000E+00  0.00000000E+00  0.00000000E+00  5.99573067E-02  0.00000000E+00
  0.00000000E+00  0.00000000E+00  1.10263602E-01  0.00000000E+00  0.00000000E+00
  0.00000000E+00  0.00000000E+00  1.08909573E+00  0.00000000E+00  0.00000000E+00
  0.00000000E+00 -1.01874977E+00  0.00000000E+00  0.00000000E+00  0.00000000E+00
  0.00000000E+00  5.34067097E-01 -1.72410332E-01  2.03516093E-02 -9.62364671E-03
 -1.14865460E-01  1.00538364E-01  0.00000000E+00 -2.29617849E-01 -1.39780575E-02
  1.26459751E-01  0.00000000E+00  1.02122598E-02  4.67859542E-02 -5.62171120E-01
  2.10453006E-01  0.00000000E+00 -1.71761147E-01  1.34180897E+00 -3.99973094E-01
  0.00000000E+00 -3.68394697E-01 -1.66717289E-01  6.71736785E-01  2.18148115E-01
 -1.66409220E-02 -1.37186340E-02  7.68273825E-02 -9.46545779E-02 -6.71831252E-02
 -1.10138920E-01  0.00000000E+00 -2.36592522E-01 -1.40645942E-01 -6.65840963E-01
  0.00000000E+00 -7.16709840E-02  4.93456048E-02 -2.81273311E-01 -9.12107685E-01
  0.00000000E+00  9.83047691E-01  6.87698196E-01  6.74294282E-01  0.00000000E+00
 -5.23975691E-01 -3.08872137E-01 -3.07119982E-01  1.54585160E-01 -9.82074270E-02
  9.85624372E-02  2.02153202E-02  5.69901790E-02  2.83080023E-02  1.10130880E-01
  0.00000000E+00 -9.56306881E-02 -3.41901096E-02 -4.49694655E-01  0.00000000E+00
  4.12161371E-02  4.49025415E-01 -1.78439530E-02 -6.21995889E-01  0.00000000E+00
 -1.59951430E-01 -1.67060201E-02  1.84476423E-01  0.00000000E+00  8.01032701E-01
 -4.83840137E-01  7.39988923E-01 -4.75122344E-01 -8.89054255E-01  6.36701488E-01
 -3.83040009E-02  2.70994284E-02 -3.36185765E-01  2.36631083E-01  0.00000000E+00
 -1.48260595E-02 -2.56070027E-01 -1.94900190E-01  0.00000000E+00  3.21515383E-02
 -8.65143668E-02 -7.28217084E-01  2.30102144E-01  0.00000000E+00  3.79398671E-02
  1.50508539E+00 -1.03254587E-01  0.00000000E+00  3.02679107E-01 -1.04857232E+00
 -2.77413288E-01  9.92328338E-01  5.57047704E-01 -4.22240398E-01  9.53408725E-03
 -1.14385483E-02  5.42484685E-01 -2.26584694E-01  0.00000000E+00  1.25222346E-01
 -3.46079088E-01  3.33946304E-01  0.00000000E+00 -1.96522865E-02  1.06838156E-01
 -6.24259826E-01 -6.29841046E-03  0.00000000E+00 -3.14480637E-01  6.92898253E-01
 -3.48752197E-02  0.00000000E+00  6.13932899E-01 -7.71103408E-01 -5.81137443E-01
  9.19632393E-01  0.00000000E+00  0.00000000E+00  0.00000000E+00  0.00000000E+00
  0.00000000E+00  0.00000000E+00 -1.07801515E+00  0.00000000E+00  0.00000000E+00
  0.00000000E+00  1.10182452E+00  0.00000000E+00  0.00000000E+00  0.00000000E+00
  0.00000000E+00  7.88805963E-02  0.00000000E+00  0.00000000E+00  0.00000000E+00
 -3.65496005E-01  0.00000000E+00  0.00000000E+00  0.00000000E+00  0.00000000E+00
 -5.63661635E-01  7.36633630E-01 -5.36739420E-02  1.78172239E-01  9.82862903E-02
 -9.58193455E-01  0.00000000E+00  3.38896453E-01 -3.67973186E-01  1.32036416E+00
  0.00000000E+00 -2.68151644E-02  6.57317927E-02 -7.75351563E-02 -8.99939194E-02
  0.00000000E+00 -9.19499917E-01  6.91999332E-01  5.07394672E-01  0.00000000E+00
 -1.38804563E-01 -1.94719716E-01  3.73955537E-01  4.42538167E-02  6.18479313E-02
 -1.34228315E-01  3.30315843E-04 -6.24516733E-02  9.47141057E-02 -1.06839111E-02
  0.00000000E+00 -2.33446703E-01 -1.31600429E-01 -5.62842140E-02  0.00000000E+00
  4.77035192E-02 -1.72197501E+00 -3.44271002E-02 -2.51940406E-01  0.00000000E+00
  2.77758727E+00  1.40405729E-01  4.30220422E-01  0.00000000E+00  2.01606497E-01
 -1.03834070E+00  2.18973586E-01 -9.24660976E-01  5.40902359E-01  5.63795813E-01
  1.80941432E-02 -2.63206335E-02 -8.89950882E-01 -4.09393362E-01  0.00000000E+00
  1.48996994E-01  1.78654872E+00  9.79246271E-01  0.00000000E+00 -1.21302415E-02
 -4.41662521E-02  1.36310843E-02 -1.19254059E-01  0.00000000E+00 -4.66716321E-01
 -1.20688009E+00  6.62050614E-01  0.00000000E+00  4.57340280E-01  1.14962953E-01
 -2.75322550E-01 -5.16590792E-01 -2.83415477E-01 -2.65019755E-01  8.65775937E-03
 -1.85269271E+00  8.29808360E-02 -1.93271923E-01  0.00000000E+00  3.29475238E+00
 -3.79916362E-01  1.02712066E+00  0.00000000E+00  5.74603109E-03  1.13754559E-01
  1.41344992E-02  1.58880725E-01  0.00000000E+00 -1.76408250E+00  1.56304969E-01
  9.78475012E-01  0.00000000E+00  7.71232517E-02 -3.74951166E-02  1.28471293E-01
  6.95978264E-02
Total SCF Density                          R   N=         300
  1.83467831E-01  1.29760410E-01  1.04964308E-01 -3.91397320E-02  1.51595864E-02
  2.05429531E+00  3.75302453E-02 -1.70988624E-03  9.30062519E-02  1.17185517E-01
 -2.05716015E-01 -1.60879165E-01 -3.70611883E-02  3.01854110E-02  3.88400850E-01
 -9.76482543E-02 -8.02707252E-02  2.69177355E-02 -1.07005959E-02 -5.65915444E-02
  3.67036470E-01 -2.89199396E-19 -9.37347842E-21 -2.52288910E-18  1.43181586E-18
  2.05137155E-17 -3.51292769E-17  2.37500551E-01  1.25257622E-01 -1.44876768E-02
 -4.83282842E-01  3.26735341E-01  1.67542248E-01 -1.42172606E-01  1.25423966E-17
  1.22717067E+00 -2.04588674E-01 -1.65662679E-01 -2.57115532E-02  3.74022210E-02
  4.07082876E-01 -9.63133337E-02  2.42380798E-17  2.00874931E-01  4.39812092E-01
 -3.81157906E-02 -3.20722497E-02 -3.98943794E-03 -2.03700445E-02 -1.34592214E-01
  3.28665821E-01 -3.71658948E-17 -1.58978228E-01 -1.76015832E-01  3.15455475E-01
 -3.56262499E-18 -2.81769551E-18 -4.92180665E-19  2.16888479E-18  2.63629845E-17
 -3.61034425E-17  2.73559313E-01  1.44004638E-17  3.07236594E-17 -3.98878776E-17
  3.15092732E-01  1.53855322E-02  2.05546023E-02  1.84177324E-02 -1.97357689E-02
  3.15258879E-03 -8.68886865E-02  4.91079293E-18 -1.53335087E-02  1.24121875E-02
 -6.30430370E-02  3.84409897E-18  2.03434890E+00 -2.32315643E-02 -2.26625071E-02
 -2.10269163E-02  1.89810531E-02 -5.59257142E-03  1.10001167E-01 -6.26151647E-18
  2.09447591E-02 -1.59306862E-02  8.70271337E-02 -5.27314175E-18  8.47498269E-02
  1.31488847E-01  1.19407412E-02  3.98678359E-02  1.05533342E-03  5.64651801E-04
  2.16649327E-02 -6.98115503E-03  6.98658123E-18 -1.48897000E-02 -2.95881593E-02
  4.08386080E-03  5.86040130E-18 -1.16641161E-03  3.15315173E-03  3.08630813E-01
  5.48677165E-02  7.26376572E-02  5.95641203E-02 -6.33520679E-02  6.88752381E-03
 -2.68044050E-01  3.07514781E-18 -1.61826263E-01  3.39554977E-02 -2.41789894E-01
  5.47814733E-19  3.47035552E-03 -1.94594962E-02  2.67860092E-03  3.30213906E-01
 -2.71434796E-18 -2.92564524E-18 -3.27718150E-18  3.53241846E-18  6.21671490E-18
  2.69021465E-18  2.16090874E-01  8.56988994E-18  4.20219235E-18 -2.81289744E-19
  2.48899090E-01 -2.25017856E-19  1.16773658E-18  1.38745904E-17 -2.91703214E-17
  1.96611190E-01 -7.57832128E-02 -4.60648063E-02  6.78386468E-02 -1.07998528E-02
  4.69284253E-02  1.15898035E-01 -5.13110787E-18 -1.24041778E-01  3.92303281E-02
  6.44141489E-02 -2.48684322E-18 -3.02648216E-01  2.15515974E-01  2.45016264E-03
  1.21964352E-01 -6.70237590E-18  5.48353282E-01  1.29522227E-02  2.96887663E-02
 -1.87740714E-02  1.52991330E-02  4.94430158E-02 -5.24942763E-02  1.10801407E-17
  5.72962309E-02  1.68265394E-02 -4.46762167E-02  1.07723383E-17  7.23836520E-03
 -1.03230022E-02  2.36519310E-01  2.36749097E-02  1.14318789E-17 -1.55899365E-02
  1.90548329E-01  4.62758700E-02  4.18644434E-02 -3.19394808E-02 -5.73116193E-03
 -3.22937514E-02 -7.38834151E-02 -1.03825855E-17 -5.22043570E-03 -2.86134692E-02
 -6.22967301E-02 -1.29865796E-17 -4.51997943E-02  3.42041845E-02  1.90888842E-02
  1.19567271E-01 -1.84702354E-17  1.18729077E-01  1.94176703E-02  6.72631988E-02
 -2.20933042E-18 -1.49991465E-18  1.25191219E-18  7.42779639E-19  9.95878632E-18
 -1.09432627E-17  2.44772572E-01  1.88008226E-18  9.88067665E-18 -1.34324104E-17
  2.81935416E-01  2.70999761E-18 -2.18523452E-18  1.16864544E-17 -1.83429477E-17
  2.22707353E-01 -7.02349543E-18  1.12127042E-17 -1.71985547E-17  2.52267255E-01
  3.36268569E-02  5.29231202E-02  1.60537904E-02 -1.67583215E-02 -3.99610095E-02
 -8.50395727E-03 -6.37076362E-19 -8.80648648E-02 -7.23852404E-02  1.83305024E-03
 -2.11084874E-18 -6.63669211E-02  6.77468857E-02  1.88618641E-01  9.38233348E-02
  2.69776322E-20  1.77499324E-01  1.38031560E-01  7.51223573E-02 -3.38983150E-19
  1.93683059E-01  6.09836488E-02  7.25007958E-02  3.42974277E-02 -3.03874195E-02
 -1.00813931E-01 -8.28001543E-03 -2.33851550E-18 -1.31984633E-01 -1.30337353E-01
  1.91037105E-02 -4.67805721E-18  7.09834764E-03  2.48427845E-02  1.51273397E-01
  6.30751671E-02  6.97305071E-19  6.14691063E-02  1.05387998E-01  4.75949477E-02
  2.83054217E-19  1.40769269E-01  1.25600757E-01 -2.50946410E-02 -3.08929333E-02
 -9.24908731E-04 -3.72728257E-03  4.19496310E-02 -4.49434583E-02  3.65919927E-18
  8.92871876E-04  7.98079506E-02 -6.62750268E-02  5.89411864E-18 -6.27191403E-02
  5.92818038E-02 -1.77474703E-01  1.15675769E-01 -1.13472076E-17  1.88862801E-01
 -1.29492984E-01  5.30542459E-02 -6.53925457E-18 -4.00158760E-02 -6.71506856E-02
  1.93359141E-01 -3.74084486E-02 -4.28977609E-02 -1.39301655E-02  9.54370487E-03
  1.11916537E-01 -1.14112051E-01  9.44079920E-18  8.07211560E-02  1.57203010E-01
 -1.35697549E-01  1.18959872E-17  1.88766029E-02  3.16240339E-03 -1.63473420E-01
  1.12812902E-01 -1.07996729E-17  6.82363606E-02 -1.04130990E-01  2.81191138E-02
 -4.45113996E-18 -7.97639849E-02 -9.47550190E-02  1.58681187E-01  1.70512702E-01
QEq coupling tensors                       R   N=          30
 -3.13600324E-01 -2.76687116E-01  8.98971759E-02 -2.26145370E-17 -1.03680258E-17
  2.23703148E-01  5.89033106E-01 -6.48546256E-01  2.29162289E-01  3.68427047E-18
  6.54884873E-18 -8.18195395E-01  1.73458610E-01  2.03944855E-02  1.55810576E-01
  2.82855974E-18 -1.48766496E-18 -3.29269186E-01 -2.22387290E-01 -2.22903480E-01
  4.20056679E-02 -1.82890640E-17 -8.97542192E-18  1.80381622E-01 -1.71752864E-01
  2.34768043E-01 -5.88718736E-03 -5.93656440E-17  4.09409604E-17  1.77640051E-01
Mulliken Charges                           R   N=           5
  2.91843321E-01 -5.80293601E-01 -1.10316223E-01  2.16211003E-01  1.82555499E-01
Optimization MaxStp                        I                2
Optimization Job offset                    I                0
Optimization Num results per geometry      I                2
Optimization Num geometry variables        I               15
Opt point       1 Results for each geome   R   N=           2
 -9.34947806E+01  0.00000000E+00
Opt point       1 Geometries               R   N=          15
 -1.68206589E+00 -2.00208637E+00 -5.55111512E-17  5.67110624E-02 -1.19378280E+00
  0.00000000E+00  5.67110624E-02  1.18052368E+00  0.00000000E+00  1.82864451E+00
  2.17268679E+00  5.55111512E-17 -1.60979088E+00  2.35994278E+00 -2.22044605E-16
Opt point       1 Gradient at each geome   R   N=          15
  1.80071421E-05 -2.58909378E-05 -2.89214318E-16 -3.94729610E-05  4.42038998E-05
  5.47552590E-16  1.85591437E-05 -1.57394444E-05  5.58728343E-16  1.80103899E-06
 -2.85178701E-06  3.39477041E-16  1.10563625E-06  2.78269432E-07 -1.15654170E-15
Optimization Number of geometries          I   N=           1
           1
ONIOM Charges                              I   N=          16
           0           0           0           0           0           0
           0           0           0           0           0           0
           0           0           0           0
ONIOM Multiplicities                       I   N=          16
           1           0           0           0           0           0
           0           0           0           0           0           0
           0           0           0           0
Atom Layers                                I   N=           5
           1           1           1           1           1
Atom Modifiers                             I   N=           5
           0           0           0           0           0
Force Field                                I                0
Int Atom Modified Types                    I   N=           5
           0           0           0           0           0
Link Atoms                                 I   N=           5
           0           0           0           0           0
Atom Modified MM Charges                   R   N=           5
  0.00000000E+00  0.00000000E+00  0.00000000E+00  0.00000000E+00  0.00000000E+00
Link Distances                             R   N=          20
  0.00000000E+00  0.00000000E+00  0.00000000E+00  0.00000000E+00  0.00000000E+00
  0.00000000E+00  0.00000000E+00  0.00000000E+00  0.00000000E+00  0.00000000E+00
  0.00000000E+00  0.00000000E+00  0.00000000E+00  0.00000000E+00  0.00000000E+00
  0.00000000E+00  0.00000000E+00  0.00000000E+00  0.00000000E+00  0.00000000E+00
Cartesian Gradient                         R   N=          15
  1.80071421E-05 -2.58909378E-05 -2.89214318E-16 -3.94729610E-05  4.42038998E-05
  5.47552590E-16  1.85591437E-05 -1.57394444E-05  5.58728343E-16  1.80103899E-06
 -2.85178701E-06  3.39477041E-16  1.10563625E-06  2.78269432E-07 -1.15654170E-15
Cartesian Force Constants                  R   N=         120
  3.69842459E-01  1.63368759E-01  1.45518627E-01 -5.13478149E-16  1.00613962E-16
  3.83154330E-02 -3.71543662E-01 -1.05763647E-01  5.15212872E-16  4.88521953E-01
 -1.78881848E-01 -1.06864495E-01 -1.52655666E-16  1.61971889E-01  9.22591999E-01
  4.05925293E-16 -1.33573708E-16 -5.01377670E-02 -8.18789481E-16  3.33066907E-16
  8.32017339E-02 -5.58350764E-03 -5.94937993E-02 -6.33174069E-17 -1.36205608E-01
  1.88816578E-02  1.73472348E-17  7.13762779E-01  1.72232094E-02 -3.89423774E-02
  6.09321621E-17 -5.69937715E-02 -7.49119851E-01  1.38777878E-17  3.72184338E-02
  1.06363025E+00  3.90312782E-17  6.15555783E-17  5.84806459E-03  3.36536354E-16
 -1.11022302E-16 -6.36260537E-02 -1.16573418E-15  6.66133815E-16  1.78951120E-01
  2.60484873E-03  2.43856824E-03  2.77555756E-17  1.04042378E-02 -3.06416624E-03
  5.11743425E-17 -3.06117471E-01 -1.18368261E-01  2.55004351E-16  3.14553645E-01
 -1.61818758E-03 -3.93493056E-03  4.33680869E-18 -4.05207484E-02 -3.31157071E-02
  4.90059382E-17 -1.08737079E-01 -1.22511262E-01 -1.21430643E-16  1.32719955E-01
  1.49347647E-01  1.72388145E-17  1.32272665E-17  2.22764497E-02  6.93889390E-18
 -4.85722573E-17 -1.05530793E-02  3.53883589E-16  5.03069808E-17 -5.57661311E-02
 -4.09394740E-16  3.12250226E-17  3.26116134E-02  4.67986237E-03 -5.49880899E-04
  1.60461922E-17  8.82307904E-03  1.09246705E-03  3.38271078E-16 -2.65856193E-01